LAMMPS data file via write_data, version 15 May 2015, timestep = 2050000

10000 atoms
2 atom types

0.0000000000000000e+00 1.5811388300841898e+02 xlo xhi
0.0000000000000000e+00 1.5811388300841898e+02 ylo yhi
0.0000000000000000e+00 1.5811388300841898e+00 zlo zhi

Masses

1 1

Atoms # atomic

7159 1 7.5181727939278720e-01 1.0406159418420435e+00 0.0000000000000000e+00 1 1 0 
4809 1 1.0998513814139677e+01 7.8157927064564589e+01 0.0000000000000000e+00 0 0 0 
8194 1 5.5687372100698047e+00 4.1622612172444290e-01 0.0000000000000000e+00 1 0 0 
1405 1 6.5258051541547921e+00 4.1428189229049611e-01 0.0000000000000000e+00 0 1 0 
5723 1 5.1127687555312775e+00 7.8591156848886584e+01 0.0000000000000000e+00 1 0 0 
3928 1 9.5346600084335655e+00 1.8509428036701539e-01 0.0000000000000000e+00 0 1 0 
1418 1 1.2607387255409423e+01 8.4282418071818865e-01 0.0000000000000000e+00 0 1 0 
8473 1 1.6669578699736380e+01 8.8165154100934928e-01 0.0000000000000000e+00 1 1 0 
6473 1 1.5702774247233808e+01 6.8387617109344156e-01 0.0000000000000000e+00 0 0 0 
2616 1 1.8851994002509436e+01 4.2076404858379429e-01 0.0000000000000000e+00 0 1 0 
4331 1 2.1406909194145094e+01 1.0148999846826039e+00 0.0000000000000000e+00 0 0 0 
9732 1 3.4810701249436854e-01 1.9208996022065279e+00 0.0000000000000000e+00 1 1 0 
773 1 9.9665762462021590e+00 1.0408742258634800e+00 0.0000000000000000e+00 0 1 0 
1290 1 1.0835720463164520e+01 1.4510117857054619e+00 0.0000000000000000e+00 0 1 0 
1389 1 1.1622610668333882e+01 8.4495358949680743e-01 0.0000000000000000e+00 0 1 0 
4184 1 1.7413611222164764e+01 1.5651055513498930e+00 0.0000000000000000e+00 0 1 0 
4013 1 1.8343416092897151e+01 1.2919179816005428e+00 0.0000000000000000e+00 0 1 0 
1501 1 2.1444112914321931e+01 2.0005959107696452e+00 0.0000000000000000e+00 0 0 0 
991 1 2.9970031565159396e+00 3.6196408600715850e+00 0.0000000000000000e+00 0 1 0 
6125 1 3.9052702989147692e+00 3.2216541248903270e+00 0.0000000000000000e+00 1 0 0 
3640 1 4.8595224057780033e+00 3.3617660254485022e+00 0.0000000000000000e+00 0 1 0 
9568 1 6.5922353234631625e+00 3.1211274814491503e+00 0.0000000000000000e+00 1 1 0 
1001 1 7.4988549817627996e+00 2.7719807042353444e+00 0.0000000000000000e+00 0 1 0 
7153 1 8.3662446990690196e+00 3.1992774595627385e+00 0.0000000000000000e+00 1 1 0 
8523 1 1.0875181164373375e+01 2.4328746331920068e+00 0.0000000000000000e+00 1 1 0 
8276 1 1.7161050864065384e+01 2.5195209228793649e+00 0.0000000000000000e+00 1 1 0 
7163 1 1.7764059866863590e+01 3.3220698225767444e+00 0.0000000000000000e+00 1 1 0 
5342 1 1.8756982605855988e+01 3.2993757017426955e+00 0.0000000000000000e+00 0 1 0 
1538 1 1.9730658414286449e+01 3.1284161144262472e+00 0.0000000000000000e+00 0 0 0 
1070 1 2.1499025336221354e+01 2.9943754299887102e+00 0.0000000000000000e+00 0 1 0 
5580 1 2.2401515112460736e+01 3.4063185580479356e+00 0.0000000000000000e+00 0 1 0 
1423 1 2.3957741313338445e+00 4.3666328403526009e+00 0.0000000000000000e+00 0 1 0 
6677 1 5.7972974491669440e+00 3.7024978461106950e+00 0.0000000000000000e+00 0 1 0 
2746 1 5.9796236647795373e+00 4.6796653325238147e+00 0.0000000000000000e+00 1 1 0 
8655 1 9.0376127181410428e+00 3.9543516676460984e+00 0.0000000000000000e+00 1 0 0 
5483 1 1.1428910740097102e+01 3.2466187733609915e+00 0.0000000000000000e+00 0 1 0 
8485 1 1.2421413639518416e+01 3.2749909276118796e+00 0.0000000000000000e+00 1 1 0 
130 1 1.3356786918646641e+01 3.6101418826402600e+00 0.0000000000000000e+00 0 0 0 
6053 1 1.7342163406266600e+01 4.2563007061445752e+00 0.0000000000000000e+00 1 0 0 
1150 1 2.0639636100091277e+01 3.4884110008555806e+00 0.0000000000000000e+00 0 1 0 
2807 1 2.0696813340655016e+01 4.4939375493916280e+00 0.0000000000000000e+00 0 2 0 
9655 1 1.3507701526245732e+01 4.3776059183087668e-01 0.0000000000000000e+00 1 1 0 
9470 1 1.5330477276667533e+00 4.8110065345257791e+00 0.0000000000000000e+00 1 1 0 
1324 1 5.6606656248772669e-01 4.5931631290616961e+00 0.0000000000000000e+00 0 1 0 
8768 1 5.9160841391731793e+00 5.6534456467444958e+00 0.0000000000000000e+00 1 0 0 
2559 1 9.6152355383808015e+00 4.7460837098977828e+00 0.0000000000000000e+00 0 0 0 
5434 1 9.6295050338177877e+00 5.7338070831017864e+00 0.0000000000000000e+00 0 1 0 
4436 1 1.3885732472656102e+01 4.4315072446785244e+00 0.0000000000000000e+00 0 0 0 
2002 1 1.3875726264454853e+01 5.4098714644987407e+00 0.0000000000000000e+00 1 0 0 
6106 1 1.7677731390775751e+01 5.1755394264457699e+00 0.0000000000000000e+00 1 0 0 
87 1 1.8234114715065207e+01 5.9976949851717256e+00 0.0000000000000000e+00 0 0 0 
2548 1 2.0853162286138964e+01 5.4761451257390954e+00 0.0000000000000000e+00 0 1 0 
52 1 5.0837707595810251e+00 6.1570462566466819e+00 0.0000000000000000e+00 0 0 0 
2758 1 1.0146297233917682e+01 6.5713536033581441e+00 0.0000000000000000e+00 0 1 0 
7337 1 1.1124621293571559e+01 6.6602182721293897e+00 0.0000000000000000e+00 1 0 0 
449 1 1.2065946702074266e+01 6.3907046791488726e+00 0.0000000000000000e+00 0 1 0 
7646 1 1.3821206626336698e+01 6.3951988618201501e+00 0.0000000000000000e+00 1 0 0 
9566 1 1.9213365567966143e+01 6.0799438756746502e+00 0.0000000000000000e+00 1 1 0 
4106 1 2.0214467579692212e+01 6.2093847612865467e+00 0.0000000000000000e+00 0 1 0 
9833 1 3.2234338451794518e+00 8.0465371002408848e+00 0.0000000000000000e+00 1 1 0 
9137 1 3.9636911933313108e+00 7.4234585816224730e+00 0.0000000000000000e+00 1 0 0 
3509 1 4.8896136623462532e+00 7.1322400153471426e+00 0.0000000000000000e+00 0 0 0 
5279 1 5.5993038695904449e+00 7.8284603594138327e+00 0.0000000000000000e+00 0 1 0 
2560 1 8.9338602848859452e+00 8.0716935994744858e+00 0.0000000000000000e+00 0 1 0 
5358 1 9.6865198635966117e+00 7.4388496818593151e+00 0.0000000000000000e+00 0 1 0 
585 1 1.2916038952889453e+01 6.9138004175564474e+00 0.0000000000000000e+00 0 0 0 
1525 1 1.4651032919974728e+01 6.9075445153637736e+00 0.0000000000000000e+00 0 0 0 
1034 1 2.0532021657609651e+01 7.1317318693385721e+00 0.0000000000000000e+00 0 1 0 
2673 1 2.1420350636574636e+01 7.5166199482590814e+00 0.0000000000000000e+00 0 1 0 
8795 1 1.0487806685317405e+00 8.8480448547223443e+00 0.0000000000000000e+00 1 0 0 
1377 1 1.9717506923369090e+00 9.1256560009532457e+00 0.0000000000000000e+00 0 1 0 
3713 1 2.9332852397252727e+00 8.9926128678100579e+00 0.0000000000000000e+00 0 1 0 
5375 1 6.0884423020167162e+00 8.6966825333092679e+00 0.0000000000000000e+00 0 1 0 
422 1 7.0755696355450457e+00 8.6367109357507470e+00 0.0000000000000000e+00 0 0 0 
5961 1 7.9873329653355913e+00 8.2859462271514239e+00 0.0000000000000000e+00 1 0 0 
1320 1 1.0748924184068279e+01 9.0933526622848877e+00 0.0000000000000000e+00 0 1 0 
9242 1 1.1715720933329722e+01 9.2370694058373299e+00 0.0000000000000000e+00 1 1 0 
2586 1 1.2633753501564675e+01 8.8737727038325040e+00 0.0000000000000000e+00 0 1 0 
9979 1 1.2852549075501594e+01 7.9239785638921267e+00 0.0000000000000000e+00 1 1 0 
1781 1 1.5483892025144508e+01 7.4638565452430177e+00 0.0000000000000000e+00 0 0 0 
4254 1 1.5777451943393467e+01 8.4195675570181798e+00 0.0000000000000000e+00 0 1 0 
4230 1 1.6748357963082224e+01 8.6322176671589492e+00 0.0000000000000000e+00 0 1 0 
4427 1 2.1671163199693119e+01 8.4389425050579518e+00 0.0000000000000000e+00 0 0 0 
1174 1 2.2083431488981361e+01 9.3003937899164324e+00 0.0000000000000000e+00 0 1 0 
247 1 2.7381082329562317e-01 9.4888015340852778e+00 0.0000000000000000e+00 0 0 0 
7989 1 3.6628135104049999e+00 9.6936732343499052e+00 0.0000000000000000e+00 1 0 0 
3405 1 4.6222905978802915e+00 9.5808198941619676e+00 0.0000000000000000e+00 0 0 0 
4255 1 5.5905667090833289e+00 9.5565530499325657e+00 0.0000000000000000e+00 0 1 0 
8872 1 9.2246117746572089e+00 1.0304481337685981e+01 0.0000000000000000e+00 1 0 0 
5872 1 1.0014750621245014e+01 9.7385176688015278e+00 0.0000000000000000e+00 0 0 0 
8447 1 1.3412493134026136e+01 9.5564566774663877e+00 0.0000000000000000e+00 1 1 0 
786 1 1.4401411998324102e+01 9.8412033123861011e+00 0.0000000000000000e+00 0 0 0 
3112 1 1.5115457168880550e+01 9.1426249298690525e+00 0.0000000000000000e+00 1 0 0 
1208 1 1.7611749878765291e+01 9.1012231602679563e+00 0.0000000000000000e+00 0 1 0 
9040 1 2.2580577450725997e+01 4.9514643559664577e+01 0.0000000000000000e+00 1 -1 0 
153 1 3.3342115889478321e+00 1.0627299226129283e+01 0.0000000000000000e+00 0 0 0 
1021 1 6.0672193840194604e+00 1.0413749455916806e+01 0.0000000000000000e+00 0 1 0 
5633 1 6.6830120841245364e+00 1.1160904304992211e+01 0.0000000000000000e+00 1 1 0 
1371 1 7.6461928808050423e+00 1.0932209572840693e+01 0.0000000000000000e+00 0 1 0 
811 1 8.6262572025538020e+00 1.1093417011251525e+01 0.0000000000000000e+00 0 1 0 
1116 1 1.4576513397610780e+01 1.0781764735059401e+01 0.0000000000000000e+00 0 1 0 
5101 1 1.8350330694303310e+01 9.7216987120565879e+00 0.0000000000000000e+00 0 1 0 
997 1 1.9106987104188814e+01 1.0367148807309977e+01 0.0000000000000000e+00 0 1 0 
237 1 2.2555407608324018e+01 2.2969476311871894e+01 0.0000000000000000e+00 0 0 0 
5286 1 3.6274252901765358e+00 1.1555348909970556e+01 0.0000000000000000e+00 1 1 0 
7387 1 3.3232895918246519e+00 1.2475558470236184e+01 0.0000000000000000e+00 1 0 0 
9748 1 6.3808622426436354e+00 1.2092673082165637e+01 0.0000000000000000e+00 1 1 0 
8845 1 9.0075328371717838e+00 1.2025331416700070e+01 0.0000000000000000e+00 1 0 0 
232 1 1.5056011625883022e+01 1.1658098762542455e+01 0.0000000000000000e+00 0 0 0 
4052 1 1.5722980027169900e+01 1.2351505402294082e+01 0.0000000000000000e+00 0 1 0 
2495 1 1.9949034952551397e+01 1.0871823089885941e+01 0.0000000000000000e+00 0 1 0 
9185 1 2.0728368630747049e+01 1.1465012776355625e+01 0.0000000000000000e+00 1 1 0 
739 1 2.1450645283335938e+01 1.2150518857973664e+01 0.0000000000000000e+00 0 0 0 
7586 1 2.2381002003925474e+01 1.1901687478833166e+01 0.0000000000000000e+00 1 0 0 
1477 1 2.2099099149685157e+00 1.3732458290786571e+01 0.0000000000000000e+00 0 1 0 
783 1 3.1856035435911521e+00 1.3450495789335267e+01 0.0000000000000000e+00 0 1 0 
2884 1 6.9197248284891844e+00 1.2918703212124456e+01 0.0000000000000000e+00 0 1 0 
4154 1 8.9795987225162097e+00 1.3006821346064710e+01 0.0000000000000000e+00 0 1 0 
1006 1 9.2394859155672702e+00 1.3946188938190735e+01 0.0000000000000000e+00 0 0 0 
149 1 1.3186931515723465e+01 1.3779508324344445e+01 0.0000000000000000e+00 0 0 0 
3508 1 1.3818435832056046e+01 1.4541211203116564e+01 0.0000000000000000e+00 0 0 0 
9274 1 1.6583212200353383e+01 1.2822726656167154e+01 0.0000000000000000e+00 1 0 0 
1655 1 1.7161566835097453e+01 1.3613150612552538e+01 0.0000000000000000e+00 0 0 0 
263 1 1.8128932102467640e+01 1.3610197337300226e+01 0.0000000000000000e+00 0 0 0 
1758 1 1.6512618228432689e+00 1.4542790841049843e+01 0.0000000000000000e+00 0 0 0 
1402 1 3.9859723304539201e+00 1.4049630330764893e+01 0.0000000000000000e+00 0 1 0 
9637 1 4.9752817708810673e+00 1.4048903312018719e+01 0.0000000000000000e+00 1 1 0 
4305 1 6.8128858215864883e+00 1.3911755905160122e+01 0.0000000000000000e+00 1 0 0 
9598 1 5.9175300292085264e+00 1.4312396842046692e+01 0.0000000000000000e+00 1 1 0 
1297 1 9.7044069871306693e+00 1.4833206822102442e+01 0.0000000000000000e+00 0 1 0 
7784 1 1.0681301623833894e+01 1.4889668032365709e+01 0.0000000000000000e+00 1 1 0 
451 1 1.1532901356080000e+01 1.4439633517974332e+01 0.0000000000000000e+00 0 0 0 
2153 1 1.2176362593093884e+01 1.3712115086191693e+01 0.0000000000000000e+00 0 1 0 
6395 1 1.4760864154486853e+01 1.4733829772934406e+01 0.0000000000000000e+00 1 0 0 
2716 1 1.5714218309723075e+01 1.4595096491762934e+01 0.0000000000000000e+00 0 1 0 
2793 1 1.6711388678128849e+01 1.4511652147193514e+01 0.0000000000000000e+00 0 1 0 
6992 1 1.9119259196601742e+01 1.3740078803070020e+01 0.0000000000000000e+00 0 1 0 
1392 1 1.9885346295320794e+01 1.4352128071248256e+01 0.0000000000000000e+00 0 1 0 
8479 1 1.7920873751159516e+00 1.5523667402318287e+01 0.0000000000000000e+00 1 1 0 
7185 1 2.5416330537570961e+00 1.6190622162474398e+01 0.0000000000000000e+00 1 1 0 
7493 1 9.1623296512166377e+00 1.5669770986343856e+01 0.0000000000000000e+00 1 0 0 
880 1 1.7182038004697297e+01 1.5393029459723573e+01 0.0000000000000000e+00 0 0 0 
1651 1 2.0871184376468765e+01 1.4256801675902437e+01 0.0000000000000000e+00 0 0 0 
7095 1 2.1427429154718102e+01 1.5091301051691048e+01 0.0000000000000000e+00 1 1 0 
1572 1 2.1376329750509036e+01 1.6071085251321861e+01 0.0000000000000000e+00 0 0 0 
7421 1 3.4742514643151412e+00 1.6480343874472890e+01 0.0000000000000000e+00 1 0 0 
5912 1 4.0148646179640046e+00 1.7293526920222984e+01 0.0000000000000000e+00 1 0 0 
1683 1 4.9819529803050742e+00 1.7232650731815699e+01 0.0000000000000000e+00 0 0 0 
8091 1 5.9504257598112646e+00 1.7414786849484180e+01 0.0000000000000000e+00 0 1 0 
2442 1 6.8916363279645569e+00 1.7190405345892511e+01 0.0000000000000000e+00 0 1 0 
8487 1 7.7832572782501579e+00 1.6786320442012460e+01 0.0000000000000000e+00 1 1 0 
883 1 8.7478767578296850e+00 1.6568604228559444e+01 0.0000000000000000e+00 0 1 0 
9812 1 9.3628756914500109e+00 1.7346568272135649e+01 0.0000000000000000e+00 1 1 0 
5645 1 1.1254016914492142e+01 1.7374550643751281e+01 0.0000000000000000e+00 1 1 0 
751 1 1.2202701757567214e+01 1.7603194590704181e+01 0.0000000000000000e+00 0 0 0 
2529 1 1.3198106328778440e+01 1.7668484801514165e+01 0.0000000000000000e+00 0 1 0 
7894 1 1.7125394956480413e+01 1.6371900024176114e+01 0.0000000000000000e+00 1 1 0 
2509 1 5.6441350657847622e-01 9.1005679512050602e-02 0.0000000000000000e+00 0 1 0 
4527 1 9.6299024121431742e-01 1.7687240523830809e+01 0.0000000000000000e+00 1 0 0 
2463 1 1.9526647093045291e+00 1.7756846910257750e+01 0.0000000000000000e+00 0 1 0 
6351 1 3.6488848320401033e+00 1.8233013407922936e+01 0.0000000000000000e+00 0 0 0 
8602 1 1.0292597012177280e+01 1.7698111010202478e+01 0.0000000000000000e+00 1 0 0 
390 1 1.4175705418897996e+01 1.7654296146339114e+01 0.0000000000000000e+00 0 0 0 
2290 1 1.4965399147616511e+01 1.8212377405044045e+01 0.0000000000000000e+00 0 1 0 
4337 1 1.6653114198182383e+01 1.8016109846730405e+01 0.0000000000000000e+00 1 0 0 
8885 1 1.7334233583705114e+01 1.7328465562108477e+01 0.0000000000000000e+00 1 0 0 
8167 1 1.8296451085114217e+01 1.7629067343650661e+01 0.0000000000000000e+00 1 1 0 
1427 1 1.9238671709835138e+01 1.7902907312547416e+01 0.0000000000000000e+00 0 1 0 
7525 1 2.0204506097454832e+01 1.8139845415568903e+01 0.0000000000000000e+00 1 0 0 
1819 1 2.6709173892673808e+00 1.8439487258523602e+01 0.0000000000000000e+00 0 0 0 
4055 1 2.3729569811833504e+00 1.9391438324810302e+01 0.0000000000000000e+00 0 1 0 
2588 1 6.8911360376044364e+00 1.9665649132647481e+01 0.0000000000000000e+00 0 1 0 
3142 1 7.8280529765706115e+00 1.9359920926365891e+01 0.0000000000000000e+00 0 0 0 
1577 1 8.8069948113000898e+00 1.9400056296407506e+01 0.0000000000000000e+00 0 0 0 
27 1 1.5856803659394306e+01 1.8591172698415683e+01 0.0000000000000000e+00 0 0 0 
2373 1 1.5992110718861390e+01 1.9572881243665407e+01 0.0000000000000000e+00 0 0 0 
7389 1 2.0764600549396679e+01 1.8924093963058088e+01 0.0000000000000000e+00 1 0 0 
8316 1 2.0625142442613353e+01 1.9897476068624609e+01 0.0000000000000000e+00 1 1 0 
9957 1 2.8764154426578945e+00 2.0215830926349433e+01 0.0000000000000000e+00 1 1 0 
4205 1 6.3238168385385887e+00 2.0441813865126715e+01 0.0000000000000000e+00 0 1 0 
3193 1 9.5713357413867239e+00 2.0033363982598644e+01 0.0000000000000000e+00 0 0 0 
6805 1 1.0270497064541470e+01 2.0769464431207656e+01 0.0000000000000000e+00 1 1 0 
9939 1 1.1943655878546661e+01 2.0545911846341173e+01 0.0000000000000000e+00 1 1 0 
1549 1 1.2909047102486330e+01 2.0453084039465015e+01 0.0000000000000000e+00 0 0 0 
414 1 1.5227337327185994e+01 2.0189339052986956e+01 0.0000000000000000e+00 0 0 0 
7409 1 1.6885646432122495e+01 2.0031817382578630e+01 0.0000000000000000e+00 1 0 0 
465 1 1.7388446157303182e+01 2.0878298785216092e+01 0.0000000000000000e+00 0 0 0 
1286 1 1.8014793686082719e+01 2.1628438654904404e+01 0.0000000000000000e+00 0 1 0 
7339 1 2.0846329301606936e+01 2.0882838466152133e+01 0.0000000000000000e+00 1 0 0 
3791 1 1.4314004828340374e+00 7.8690732051541033e+01 0.0000000000000000e+00 0 0 0 
6538 1 3.3126035224452095e+00 2.1094104248790433e+01 0.0000000000000000e+00 1 0 0 
9451 1 5.7457264047612684e+00 2.1222520826117510e+01 0.0000000000000000e+00 1 1 0 
6087 1 1.1183874332733703e+01 2.1157422642983384e+01 0.0000000000000000e+00 1 0 0 
6386 1 1.1259748108752092e+01 2.2132001077321814e+01 0.0000000000000000e+00 1 0 0 
1670 1 1.3588137146166920e+01 2.1143946031877658e+01 0.0000000000000000e+00 0 0 0 
7340 1 1.4552492991551695e+01 2.0888293487442098e+01 0.0000000000000000e+00 1 0 0 
511 1 1.8789373161127092e+01 2.2216327067705802e+01 0.0000000000000000e+00 0 0 0 
6575 1 2.1315948921563507e+01 2.1745875522065724e+01 0.0000000000000000e+00 0 0 0 
666 1 2.2388589865359112e+01 7.7634657738749723e+01 0.0000000000000000e+00 0 0 0 
1878 1 4.1634279903865758e+00 2.1607181396242940e+01 0.0000000000000000e+00 0 0 0 
1784 1 5.0804669449164326e+00 2.1942982963184601e+01 0.0000000000000000e+00 0 0 0 
1675 1 5.4562551032170328e+00 2.2882012546196822e+01 0.0000000000000000e+00 0 0 0 
8307 1 6.3875613778092628e+00 2.3132858115919337e+01 0.0000000000000000e+00 1 1 0 
9806 1 1.0546842111915117e+01 2.2777171674114495e+01 0.0000000000000000e+00 1 1 0 
4554 1 1.3382145733690226e+01 2.2102308305223549e+01 0.0000000000000000e+00 0 0 0 
1191 1 1.9162810004675080e+01 2.3136079800845721e+01 0.0000000000000000e+00 0 0 0 
2445 1 2.0837654951550991e+01 2.3324593870145531e+01 0.0000000000000000e+00 0 1 0 
4333 1 1.6944889790124638e+01 7.7810151029928988e+01 0.0000000000000000e+00 0 -1 0 
8756 1 2.1601148832163187e+01 2.2701510142831342e+01 0.0000000000000000e+00 1 0 0 
8625 1 8.8297680080011831e-01 2.3010424545516379e+01 0.0000000000000000e+00 1 0 0 
7602 1 1.5598614873239873e+00 2.3748137656269051e+01 0.0000000000000000e+00 1 0 0 
8868 1 2.4855110974496806e+00 2.4021038357829937e+01 0.0000000000000000e+00 1 0 0 
853 1 4.8658009998400953e+00 2.3684167692252956e+01 0.0000000000000000e+00 0 1 0 
2938 1 7.1907517750893435e+00 2.3727665052431536e+01 0.0000000000000000e+00 0 0 0 
141 1 8.1080815082172748e+00 2.3425503590376159e+01 0.0000000000000000e+00 0 0 0 
1575 1 8.9691316307473645e+00 2.3894933877146183e+01 0.0000000000000000e+00 0 0 0 
1317 1 9.8178977450020000e+00 2.3418579134267816e+01 0.0000000000000000e+00 0 1 0 
9094 1 1.3554693886985701e+01 2.3051092649686414e+01 0.0000000000000000e+00 1 0 0 
246 1 1.3971688724229230e+01 2.3925468845565089e+01 0.0000000000000000e+00 0 0 0 
2423 1 1.9966550612384115e+01 2.3748413450987627e+01 0.0000000000000000e+00 0 1 0 
9695 1 1.9846360098166461e+01 2.4716518990494798e+01 0.0000000000000000e+00 1 1 0 
1968 1 1.4203516614844652e+01 7.8183583965727081e+01 0.0000000000000000e+00 0 0 0 
2324 1 3.2509942934485019e+00 2.4654358513121366e+01 0.0000000000000000e+00 0 1 0 
439 1 4.2012898582643983e+00 2.4392372053242362e+01 0.0000000000000000e+00 0 0 0 
8900 1 6.9469621728305233e+00 2.4694527125623704e+01 0.0000000000000000e+00 1 0 0 
7749 1 7.4249577251343197e+00 2.5545996970211622e+01 0.0000000000000000e+00 1 0 0 
8042 1 9.0342677005329630e+00 2.4870350141755768e+01 0.0000000000000000e+00 1 1 0 
5888 1 1.4087205321004381e+01 2.4932402076086273e+01 0.0000000000000000e+00 1 -1 0 
7723 1 1.5018258685398584e+01 2.5271642730158181e+01 0.0000000000000000e+00 1 0 0 
364 1 1.5986449465126755e+01 2.5429841181191129e+01 0.0000000000000000e+00 0 0 0 
9950 1 1.9437951050012881e+01 2.5625708755506693e+01 0.0000000000000000e+00 1 1 0 
1203 1 6.0785985732094687e+00 7.8854836057746965e+01 0.0000000000000000e+00 0 0 0 
6555 1 3.0689645658631539e+00 2.5640480221239560e+01 0.0000000000000000e+00 1 1 0 
9641 1 8.4365400533736583e+00 2.5630973340267897e+01 0.0000000000000000e+00 1 1 0 
9211 1 1.1421858015268075e+01 2.7532907147092487e+01 0.0000000000000000e+00 1 0 0 
3641 1 1.2275641110714911e+01 2.7028578542013538e+01 0.0000000000000000e+00 0 0 0 
2882 1 1.2506122299179582e+01 2.6069223742446884e+01 0.0000000000000000e+00 0 1 0 
115 1 1.3327836685032580e+01 2.5541970529731778e+01 0.0000000000000000e+00 0 0 0 
577 1 1.6450128295687442e+01 2.6277727068247881e+01 0.0000000000000000e+00 0 0 0 
1240 1 1.9767452850877781e+01 2.6570032801423629e+01 0.0000000000000000e+00 0 1 0 
8378 1 1.9049642877039389e+01 2.7251173640812009e+01 0.0000000000000000e+00 1 0 0 
4343 1 2.0720967855286762e+01 2.6817870906704673e+01 0.0000000000000000e+00 1 0 0 
4313 1 2.1627843285638551e+01 2.6401565802051010e+01 0.0000000000000000e+00 0 0 0 
8527 1 2.1795599802720051e+01 2.5420614847978211e+01 0.0000000000000000e+00 1 1 0 
9243 1 1.0093622630321111e+01 7.8524722579777332e+01 0.0000000000000000e+00 1 0 0 
8415 1 8.8281534892938573e-01 2.8253538890609825e+01 0.0000000000000000e+00 1 1 0 
1231 1 3.3575501411055284e+00 2.6582910802121305e+01 0.0000000000000000e+00 0 1 0 
5795 1 3.2139953222940405e+00 2.7577692288694553e+01 0.0000000000000000e+00 1 1 0 
1886 1 1.0445976391066139e+01 2.7589073222962689e+01 0.0000000000000000e+00 0 0 0 
1319 1 1.5549856032940470e+01 2.7745689962912120e+01 0.0000000000000000e+00 0 1 0 
9384 1 1.6394262817904689e+01 2.7268503984871735e+01 0.0000000000000000e+00 1 0 0 
7769 1 1.7281463485545306e+01 2.7684118547756576e+01 0.0000000000000000e+00 1 0 0 
1166 1 1.8238807848295224e+01 2.7790908671586269e+01 0.0000000000000000e+00 0 1 0 
6244 1 1.5258321671779052e+00 2.9071919092881281e+01 0.0000000000000000e+00 1 0 0 
1607 1 3.2936905392062674e+00 2.8582645877846137e+01 0.0000000000000000e+00 0 0 0 
8353 1 2.4887007698484886e+00 2.9178645701570328e+01 0.0000000000000000e+00 1 1 0 
3118 1 9.6497564603313162e+00 2.8145283914542663e+01 0.0000000000000000e+00 0 0 0 
3476 1 9.3616174115969617e+00 2.9076037438567297e+01 0.0000000000000000e+00 0 0 0 
7563 1 1.4689310880077519e+01 2.8170550971884488e+01 0.0000000000000000e+00 1 0 0 
1574 1 1.4086886567302424e+01 2.8931236088885598e+01 0.0000000000000000e+00 0 0 0 
1372 1 2.0125378691877160e+01 2.9523894631526094e+01 0.0000000000000000e+00 0 1 0 
8393 1 9.9224472702511390e-01 2.9884327865320593e+01 0.0000000000000000e+00 1 1 0 
1457 1 4.1499561746859737e+00 2.9046711575450463e+01 0.0000000000000000e+00 0 1 0 
8532 1 9.8396723552332173e+00 2.9951879710884331e+01 0.0000000000000000e+00 1 1 0 
9564 1 1.4172431277053485e+01 2.9902404699148960e+01 0.0000000000000000e+00 1 1 0 
2258 1 1.8382034584032617e+01 2.9949315505583463e+01 0.0000000000000000e+00 0 1 0 
5926 1 1.9151255948492338e+01 2.9345631185905042e+01 0.0000000000000000e+00 1 0 0 
4515 1 2.1036358323360155e+01 2.9903852324388019e+01 0.0000000000000000e+00 1 0 0 
5971 1 2.1713896827954215e+01 3.0586518174054529e+01 0.0000000000000000e+00 1 -1 0 
2680 1 2.5889582457084326e-01 3.0602842362706866e+01 0.0000000000000000e+00 0 1 0 
2898 1 5.5071938109682228e-01 3.1540088682810730e+01 0.0000000000000000e+00 0 1 0 
7865 1 1.4992144466197879e+00 3.1837655664957289e+01 0.0000000000000000e+00 1 0 0 
8636 1 4.8109588735323783e+00 2.9773909852078926e+01 0.0000000000000000e+00 1 0 0 
3167 1 5.2490677070936593e+00 3.0629984637496278e+01 0.0000000000000000e+00 0 0 0 
7446 1 1.0597868963816374e+01 3.0579125684368069e+01 0.0000000000000000e+00 1 0 0 
7362 1 1.4948097548233354e+01 3.0478479546149345e+01 0.0000000000000000e+00 1 0 0 
6076 1 1.7975380358672005e+01 3.0867775156332623e+01 0.0000000000000000e+00 1 0 0 
354 1 2.1925592050298103e+01 3.1546589824128549e+01 0.0000000000000000e+00 0 0 0 
9712 1 2.2032082377255151e+01 1.6810558866589286e+01 0.0000000000000000e+00 1 0 0 
7469 1 2.4132369709494697e+00 3.2237610092661647e+01 0.0000000000000000e+00 1 0 0 
9855 1 5.3262714285782780e+00 3.1579791824257832e+01 0.0000000000000000e+00 1 1 0 
1096 1 5.9927869282835520e+00 3.2288818190692588e+01 0.0000000000000000e+00 0 0 0 
9620 1 6.9058103698544180e+00 3.1963895496960102e+01 0.0000000000000000e+00 1 0 0 
5240 1 7.8911582441043215e+00 3.2131113755917191e+01 0.0000000000000000e+00 1 0 0 
3679 1 8.8668618145092051e+00 3.2189895275073873e+01 0.0000000000000000e+00 0 0 0 
9903 1 1.0581269746858975e+01 3.2268759939151501e+01 0.0000000000000000e+00 1 1 0 
4524 1 1.1106869137036508e+01 3.1425401574079583e+01 0.0000000000000000e+00 1 0 0 
8961 1 1.2112327725785047e+01 3.1366847759837192e+01 0.0000000000000000e+00 1 0 0 
4849 1 1.2939176385363746e+01 3.1894501228219333e+01 0.0000000000000000e+00 1 0 0 
7118 1 1.3896869514287527e+01 3.2133806654113030e+01 0.0000000000000000e+00 1 1 0 
9884 1 1.5399945490824109e+01 3.1376701856399507e+01 0.0000000000000000e+00 1 1 0 
8131 1 1.4875930972424229e+01 3.2205984575190811e+01 0.0000000000000000e+00 1 0 0 
9240 1 1.6382045666605588e+01 3.1391627786123507e+01 0.0000000000000000e+00 1 0 0 
8552 1 1.7350550081756012e+01 3.1642956721389876e+01 0.0000000000000000e+00 1 1 0 
227 1 1.7643027055267719e+01 3.2612842306576717e+01 0.0000000000000000e+00 0 0 0 
9798 1 1.8642032115729510e+01 3.2700441750416864e+01 0.0000000000000000e+00 1 0 0 
9118 1 1.9570268118118747e+01 3.2407766479381586e+01 0.0000000000000000e+00 1 0 0 
5973 1 2.1292483440368070e+01 3.2306837956030662e+01 0.0000000000000000e+00 1 0 0 
7935 1 2.0461748930348858e+01 3.2813433391400942e+01 0.0000000000000000e+00 1 0 0 
1605 1 2.8645649170622605e+00 3.3091993821651847e+01 0.0000000000000000e+00 0 0 0 
9505 1 4.7511770018374762e+00 3.3470739777222974e+01 0.0000000000000000e+00 1 0 0 
6355 1 5.6967642770665012e+00 3.3237916042591564e+01 0.0000000000000000e+00 1 0 0 
584 1 9.6910548475284219e+00 3.2701157397615702e+01 0.0000000000000000e+00 0 0 0 
796 1 9.6732549439431885e+00 3.3687513745261889e+01 0.0000000000000000e+00 0 0 0 
4011 1 1.5332226575099813e+01 3.3081544478800858e+01 0.0000000000000000e+00 0 0 0 
9352 1 1.6086239656017995e+01 3.3733606535744073e+01 0.0000000000000000e+00 1 0 0 
3972 1 1.7008101985935784e+01 3.3385259520365629e+01 0.0000000000000000e+00 0 1 0 
7313 1 2.0544848500629236e+01 3.3805612087641393e+01 0.0000000000000000e+00 1 -1 0 
2392 1 8.0617928088524982e-01 3.5138873207382524e+01 0.0000000000000000e+00 1 0 0 
1493 1 3.1735844939407780e+00 3.4053116302023092e+01 0.0000000000000000e+00 0 1 0 
6239 1 2.4536615040724561e+00 3.4733974071608337e+01 0.0000000000000000e+00 1 0 0 
4176 1 4.1370239788164840e+00 3.4237699358526868e+01 0.0000000000000000e+00 0 1 0 
38 1 6.3763086754916376e+00 3.3965302005268711e+01 0.0000000000000000e+00 0 0 0 
1795 1 9.6073033360852165e+00 3.4660229602053683e+01 0.0000000000000000e+00 0 0 0 
2286 1 1.3074159636088421e+01 3.4550529511777086e+01 0.0000000000000000e+00 0 0 0 
2360 1 1.2102082746343331e+01 3.4671054029089220e+01 0.0000000000000000e+00 0 0 0 
970 1 1.5836669430995014e+01 3.4655568200406897e+01 0.0000000000000000e+00 0 0 0 
6947 1 2.1353264767550925e+01 3.4406874277926690e+01 0.0000000000000000e+00 1 1 0 
7114 1 1.7658086210427402e+00 3.5411817650976666e+01 0.0000000000000000e+00 1 1 0 
9987 1 4.5292405493652605e+00 3.5154782548577145e+01 0.0000000000000000e+00 1 1 0 
9515 1 5.3117487607881095e+00 3.5751178675737869e+01 0.0000000000000000e+00 1 0 0 
5093 1 6.8083623729671903e+00 3.4869226091869571e+01 0.0000000000000000e+00 1 0 0 
9057 1 6.3157170849972477e+00 3.5761386379565756e+01 0.0000000000000000e+00 1 0 0 
5996 1 7.7993371347289564e+00 3.4870564159861146e+01 0.0000000000000000e+00 1 0 0 
1274 1 8.7262026722646375e+00 3.5133795800733218e+01 0.0000000000000000e+00 0 1 0 
7897 1 1.0471698386916231e+01 3.5144548802700584e+01 0.0000000000000000e+00 1 0 0 
7657 1 1.1453939579985244e+01 3.5428568686599959e+01 0.0000000000000000e+00 1 0 0 
9013 1 1.3813513623585465e+01 3.5158642653953329e+01 0.0000000000000000e+00 1 0 0 
128 1 1.4570274014088708e+01 3.5776520367945537e+01 0.0000000000000000e+00 0 0 0 
1709 1 1.5552130265198297e+01 3.5634123042345891e+01 0.0000000000000000e+00 0 0 0 
1827 1 2.1898705070157749e+01 3.5227107546582424e+01 0.0000000000000000e+00 0 0 0 
1475 1 2.1393943277367008e+01 3.6070754830408255e+01 0.0000000000000000e+00 0 1 0 
6209 1 2.0402548140963574e+00 3.6361846850076752e+01 0.0000000000000000e+00 1 0 0 
9702 1 2.4413163178235964e+00 3.7278613729074699e+01 0.0000000000000000e+00 1 1 0 
6274 1 6.8231266082887103e+00 3.6609958320527525e+01 0.0000000000000000e+00 1 0 0 
9892 1 1.1709039799258992e+01 3.6418348797138428e+01 0.0000000000000000e+00 1 1 0 
9346 1 1.0988576166089405e+01 3.7138141660239071e+01 0.0000000000000000e+00 1 0 0 
8599 1 1.2646112074471539e+01 3.6716161097317723e+01 0.0000000000000000e+00 1 1 0 
2417 1 1.6213970007564200e+01 3.6378389793308322e+01 0.0000000000000000e+00 0 1 0 
8946 1 1.7179187297787596e+01 3.6109092874982032e+01 0.0000000000000000e+00 1 0 0 
1421 1 1.8149637545522495e+01 3.6167215157787510e+01 0.0000000000000000e+00 0 1 0 
9021 1 1.9078406736829006e+01 3.6513052545962232e+01 0.0000000000000000e+00 1 0 0 
9429 1 2.1862692024825044e+01 3.6927648332665953e+01 0.0000000000000000e+00 1 0 0 
5193 1 2.1764011042387956e+00 3.8232941991141217e+01 0.0000000000000000e+00 1 0 0 
926 1 7.7602092871281787e+00 3.6862163613227629e+01 0.0000000000000000e+00 0 0 0 
6586 1 8.3922661117764754e+00 3.7621753080637845e+01 0.0000000000000000e+00 1 0 0 
8256 1 9.9073753521268788e+00 3.8413628458247253e+01 0.0000000000000000e+00 1 1 0 
8994 1 1.0824955128914484e+01 3.8098573763813000e+01 0.0000000000000000e+00 1 0 0 
490 1 1.3167605862457064e+01 3.7546675094939026e+01 0.0000000000000000e+00 0 0 0 
7394 1 1.4154266820003699e+01 3.7457737675395407e+01 0.0000000000000000e+00 1 0 0 
5993 1 1.5070094174488235e+01 3.7785042500725929e+01 0.0000000000000000e+00 1 0 0 
5521 1 1.5937679458477978e+01 3.7329836179126573e+01 0.0000000000000000e+00 1 1 0 
355 1 1.9794580570141257e+01 3.7205447174281652e+01 0.0000000000000000e+00 0 0 0 
1224 1 2.0422357358580904e+01 3.7984213960393198e+01 0.0000000000000000e+00 0 0 0 
518 1 2.1424260726381696e+01 3.7793566842005355e+01 0.0000000000000000e+00 0 0 0 
37 1 2.3685295876766772e+00 3.9226763633106472e+01 0.0000000000000000e+00 0 0 0 
9811 1 3.2547217105129080e+00 3.9642151952039299e+01 0.0000000000000000e+00 1 1 0 
8073 1 4.1229664106599291e+00 3.9206848336496208e+01 0.0000000000000000e+00 1 0 0 