LAMMPS data file via write_data, version 15 May 2015, timestep = 2050000

10000 atoms
1 atom types

0.0000000000000000e+00 1.2909944487358055e+02 xlo xhi
0.0000000000000000e+00 1.2909944487358055e+02 ylo yhi
0.0000000000000000e+00 1.2909944487358056e+00 zlo zhi

Masses

1 1

Atoms # atomic

8035 1 9.6635397609285634e-01 8.5220419264010838e-01 0.0000000000000000e+00 1 0 0
1903 1 3.1223119115752285e+00 1.0250064564563390e+00 0.0000000000000000e+00 0 1 0
553 1 2.5558144450385896e+01 3.6931720125940814e+01 0.0000000000000000e+00 0 0 0
258 1 6.1325421155230648e+00 9.2826851052420445e-01 0.0000000000000000e+00 0 0 0
1964 1 7.1077577198731738e+00 1.0603620971525822e+00 0.0000000000000000e+00 0 1 0
1882 1 7.6982220558169328e+00 2.2323962315125040e-01 0.0000000000000000e+00 0 1 0
1835 1 9.1843527033916192e+00 1.1741242787918058e+00 0.0000000000000000e+00 0 1 0
70 1 9.6698416804143186e+00 3.2926699150737759e-01 0.0000000000000000e+00 0 0 0
53 1 1.0665182419023756e+01 3.8289616390468229e-01 0.0000000000000000e+00 0 0 0
1922 1 1.2698082806596780e+01 4.9475679238598208e-01 0.0000000000000000e+00 0 1 0
1679 1 1.3684377013698745e+01 5.8041750128447400e-01 0.0000000000000000e+00 0 1 0
2303 1 1.5716495393837189e+01 7.7490466234722699e-01 0.0000000000000000e+00 0 0 0
8614 1 1.6712644693173374e+01 9.3113105927695772e-01 0.0000000000000000e+00 1 0 0
236 1 1.9922405067028453e+01 1.0416616637887253e+00 0.0000000000000000e+00 0 0 0
35 1 2.0806021514461378e+01 5.7632594618192390e-01 0.0000000000000000e+00 0 0 0
2186 1 2.1690079409210185e+01 1.0812649479446510e+00 0.0000000000000000e+00 0 0 0
2364 1 2.2482560049086644e+01 4.8045194915027017e-01 0.0000000000000000e+00 0 0 0
2043 1 2.4203911762510632e+01 5.0973264283665154e-01 0.0000000000000000e+00 0 0 0
1486 1 4.1273356859421029e-01 1.6594778606561436e+00 0.0000000000000000e+00 0 1 0
1752 1 3.6203414265600626e+00 1.8814503883856202e+00 0.0000000000000000e+00 0 1 0
1986 1 4.6128779816809233e+00 1.9370718444870074e+00 0.0000000000000000e+00 0 1 0
9758 1 5.1640550834415828e+00 1.1455821143221134e+00 0.0000000000000000e+00 1 1 0
123 1 7.4190937730200313e+00 1.9802012681906327e+00 0.0000000000000000e+00 0 0 0
101 1 9.5946821448363302e+00 2.1056548712438539e+00 0.0000000000000000e+00 0 0 0
129 1 1.0593382570230487e+01 2.1680190956398766e+00 0.0000000000000000e+00 0 0 0
1911 1 1.1141763839396063e+01 1.3216581644426777e+00 0.0000000000000000e+00 0 1 0
1870 1 1.2134450560229537e+01 1.3420621121108884e+00 0.0000000000000000e+00 0 1 0
480 1 1.2566247392483188e+01 2.2761364435907656e+00 0.0000000000000000e+00 0 0 0
423 1 1.3570064454167596e+01 2.2949568031968477e+00 0.0000000000000000e+00 0 0 0
1971 1 1.5124377279883339e+01 1.5565756222532980e+00 0.0000000000000000e+00 0 1 0
3922 1 1.7157845954057809e+01 1.8095670294164823e+00 0.0000000000000000e+00 0 1 0
256 1 1.8122543203770181e+01 1.9458599643750984e+00 0.0000000000000000e+00 0 0 0
1853 1 1.8947215570073517e+01 2.4819944212404339e+00 0.0000000000000000e+00 0 1 0
479 1 1.9844286583636833e+01 2.0154036628514671e+00 0.0000000000000000e+00 0 0 0
246 1 2.1616029896076391e+01 2.0778322765143877e+00 0.0000000000000000e+00 0 0 0
1953 1 2.4203435103784308e+01 1.4879503915737473e+00 0.0000000000000000e+00 0 1 0
121 1 3.0786240643248517e+00 2.7101008730516463e+00 0.0000000000000000e+00 0 0 0
8159 1 5.0749524514258173e+00 2.7994205195501114e+00 0.0000000000000000e+00 1 0 0
84 1 6.9297903205835825e+00 2.8265787521597772e+00 0.0000000000000000e+00 0 0 0
1821 1 8.9814902621669948e+00 2.8920224775778585e+00 0.0000000000000000e+00 0 1 0
51 1 1.1038548036877353e+01 3.0475349582389204e+00 0.0000000000000000e+00 0 0 0
209 1 1.2043966691210748e+01 3.1006527255585530e+00 0.0000000000000000e+00 0 0 0
277 1 1.4570071165803711e+01 2.3970948721850935e+00 0.0000000000000000e+00 0 0 0
2222 1 1.5056364708759238e+01 3.2645935954590959e+00 0.0000000000000000e+00 0 0 0
347 1 1.6032303984023638e+01 3.4043317071879069e+00 0.0000000000000000e+00 0 0 0
280 1 1.6672104821873191e+01 2.6641185087987873e+00 0.0000000000000000e+00 0 0 0
203 1 1.8976956836245456e+01 3.4669521958113223e+00 0.0000000000000000e+00 0 0 0
179 1 2.0747777502995287e+01 2.5820256651681475e+00 0.0000000000000000e+00 0 0 0
364 1 2.0716487420117531e+01 3.5664862576828531e+00 0.0000000000000000e+00 0 0 0
2243 1 2.2505951933862040e+01 2.5329097828591522e+00 0.0000000000000000e+00 0 0 0
252 1 2.3062667092120332e+01 3.3656705686066402e+00 0.0000000000000000e+00 0 0 0
217 1 2.4468542503332049e+01 2.4349786392210206e+00 0.0000000000000000e+00 0 0 0
60 1 2.4051817843932408e+01 3.3117917004391471e+00 0.0000000000000000e+00 0 0 0
1990 1 4.4638668897156947e-01 3.9362399276564646e+00 0.0000000000000000e+00 0 1 0
8171 1 1.4050618384095284e+00 3.7760421550146099e+00 0.0000000000000000e+00 1 0 0
7 1 2.2724309194659655e+00 4.2403499992455531e+00 0.0000000000000000e+00 0 0 0
1881 1 3.0817057300531023e+00 3.6928079307354111e+00 0.0000000000000000e+00 0 1 0
1963 1 3.9780707053417586e+00 4.1801625488509417e+00 0.0000000000000000e+00 0 1 0
6140 1 4.8669974408079382e+00 3.7664053214773343e+00 0.0000000000000000e+00 1 0 0
208 1 7.0291022044372919e+00 3.8075316755288209e+00 0.0000000000000000e+00 0 0 0
193 1 8.9005611751564189e+00 3.8680803554659158e+00 0.0000000000000000e+00 0 0 0
8373 1 8.7795907972857723e+00 4.8511645962750665e+00 0.0000000000000000e+00 1 0 0
420 1 1.2389783091295346e+01 4.0191135836454057e+00 0.0000000000000000e+00 0 0 0
2262 1 1.4479689945899977e+01 4.0645360369066115e+00 0.0000000000000000e+00 0 0 0
238 1 1.6461809704121293e+01 4.3260556827319503e+00 0.0000000000000000e+00 0 0 0
146 1 1.7420116869907798e+01 4.6421671557145894e+00 0.0000000000000000e+00 0 0 0
267 1 1.8106907750736251e+01 3.9349959808421464e+00 0.0000000000000000e+00 0 0 0
2410 1 1.9822080803822928e+01 3.9856531538229225e+00 0.0000000000000000e+00 0 0 0
8096 1 2.1494836501223837e+01 4.1975731215539298e+00 0.0000000000000000e+00 1 0 0
4522 1 2.2483093595990766e+01 4.2266958907524144e+00 0.0000000000000000e+00 0 0 0
3968 1 2.4517782857179387e+01 4.2981220201249570e+00 0.0000000000000000e+00 0 1 0
2124 1 2.5497515844445292e+01 4.2183428383886197e+00 0.0000000000000000e+00 0 0 0
8044 1 6.1786419169405771e-01 5.6679397851333819e+00 0.0000000000000000e+00 1 0 0
9853 1 2.3230434649193117e+00 5.6644939248614836e+00 0.0000000000000000e+00 1 1 0
155 1 3.8927887677302713e+00 5.1776663900856912e+00 0.0000000000000000e+00 0 0 0
311 1 6.0667137121175267e+00 5.2273595166056186e+00 0.0000000000000000e+00 0 0 0
130 1 6.9525275521149528e+00 4.8202614095834866e+00 0.0000000000000000e+00 0 0 0
1944 1 7.8020737664805715e+00 5.3359358008496010e+00 0.0000000000000000e+00 0 1 0
237 1 9.6045904737610890e+00 5.4569343984449814e+00 0.0000000000000000e+00 0 0 0
2347 1 1.2914121573295260e+01 4.8902819732240825e+00 0.0000000000000000e+00 0 0 0
230 1 1.3895276845976408e+01 4.8469709988944780e+00 0.0000000000000000e+00 0 0 0
184 1 1.4406558472029463e+01 5.6925046177380931e+00 0.0000000000000000e+00 0 0 0
8072 1 1.7717641798148591e+01 5.6065327427367428e+00 0.0000000000000000e+00 1 0 0
199 1 1.8695278684530361e+01 5.8063553491447593e+00 0.0000000000000000e+00 0 0 0
2417 1 2.2973317380989428e+01 5.0981108257961996e+00 0.0000000000000000e+00 0 0 0
2127 1 2.3962420080116811e+01 5.1381390886464953e+00 0.0000000000000000e+00 0 0 0
342 1 1.4676737238065769e+00 6.1583683702429770e+00 0.0000000000000000e+00 0 0 0
1901 1 3.2674379337337425e+00 5.9244610935783122e+00 0.0000000000000000e+00 0 1 0
1886 1 5.2727553142370303e+00 5.7828850505267759e+00 0.0000000000000000e+00 0 1 0
48 1 5.2904803454704128e+00 6.7969634581762417e+00 0.0000000000000000e+00 0 0 0
8097 1 7.8636060258162264e+00 6.3588040523249223e+00 0.0000000000000000e+00 1 0 0
1982 1 8.6975154398308892e+00 6.9559942143492455e+00 0.0000000000000000e+00 0 1 0
1935 1 9.5609757130094444e+00 6.4510818996663231e+00 0.0000000000000000e+00 0 1 0
274 1 1.0456422734213897e+01 6.9044672408207264e+00 0.0000000000000000e+00 0 0 0
1912 1 1.1320696421464309e+01 6.3853347829375293e+00 0.0000000000000000e+00 0 1 0
2326 1 1.2300025505816714e+01 6.4433463290345143e+00 0.0000000000000000e+00 0 0 0
166 1 1.3965014937130380e+01 6.5666814388274837e+00 0.0000000000000000e+00 0 0 0
303 1 1.5421123665569615e+01 5.7465568602479440e+00 0.0000000000000000e+00 0 0 0
135 1 1.6060809264793082e+01 6.5055982897007985e+00 0.0000000000000000e+00 0 0 0
2370 1 1.7034373559291129e+01 6.3064479126293689e+00 0.0000000000000000e+00 0 0 0
301 1 1.9635405091234798e+01 6.1503648609616759e+00 0.0000000000000000e+00 0 0 0
157 1 2.4352024526802555e+01 6.0361836845905055e+00 0.0000000000000000e+00 0 0 0
2488 1 2.4931392931327661e+01 6.8339556352062649e+00 0.0000000000000000e+00 0 0 0
147 1 6.7367594064931169e-01 7.7794115144221232e+00 0.0000000000000000e+00 0 0 0
241 1 1.4218244723605402e+00 7.1381184783442855e+00 0.0000000000000000e+00 0 0 0
8063 1 2.7610304845121787e+00 7.6074450088586039e+00 0.0000000000000000e+00 1 0 0
154 1 3.4301692508622548e+00 6.8976932478976565e+00 0.0000000000000000e+00 0 0 0
1981 1 4.3790951869341939e+00 7.1547349499106989e+00 0.0000000000000000e+00 0 1 0
9928 1 6.1401820414490942e+00 7.2886050612164484e+00 0.0000000000000000e+00 1 1 0
131 1 7.0242653242798294e+00 6.8642490227346133e+00 0.0000000000000000e+00 0 0 0
215 1 1.0428637001915327e+01 7.9014991332293985e+00 0.0000000000000000e+00 0 0 0
3942 1 1.3099103474011310e+01 7.0139583520089293e+00 0.0000000000000000e+00 0 1 0
197 1 1.2933383667541431e+01 7.9959739606434370e+00 0.0000000000000000e+00 0 0 0
276 1 1.5750902663839614e+01 7.4142491652854652e+00 0.0000000000000000e+00 0 0 0
2440 1 1.8635317052935203e+01 8.0506168625420447e+00 0.0000000000000000e+00 0 0 0
396 1 1.9611795330229231e+01 7.8662971503235619e+00 0.0000000000000000e+00 0 0 0
34 1 2.1146808176214375e+01 6.8604799199664575e+00 0.0000000000000000e+00 0 0 0
2025 1 2.0148656055117275e+01 7.0059616211594324e+00 0.0000000000000000e+00 0 0 0
2166 1 2.2041841334850950e+01 7.2185010621520336e+00 0.0000000000000000e+00 0 0 0
2473 1 2.5573615208537522e+01 7.5928986944944858e+00 0.0000000000000000e+00 0 0 0
9993 1 8.8767695477497643e-01 8.7678165834860593e+00 0.0000000000000000e+00 1 1 0
44 1 1.8533012554183261e+00 8.9831585391480271e+00 0.0000000000000000e+00 0 0 0
9815 1 2.7547134549929106e+00 8.6012992781521902e+00 0.0000000000000000e+00 1 1 0
8416 1 3.6268084812798285e+00 9.1061970605080234e+00 0.0000000000000000e+00 1 0 0
1805 1 4.5198522982226033e+00 8.7025478237920293e+00 0.0000000000000000e+00 0 1 0
8138 1 5.4700136949654912e+00 9.0031073974578053e+00 0.0000000000000000e+00 1 0 0
46 1 6.1204520757924321e+00 8.3005108971480190e+00 0.0000000000000000e+00 0 0 0
1747 1 8.3954016710631336e+00 9.7066160735252964e+00 0.0000000000000000e+00 0 1 0
8092 1 9.0525501754441144e+00 8.9791627377925884e+00 0.0000000000000000e+00 1 0 0
242 1 1.0032297733675094e+01 8.8010249012983213e+00 0.0000000000000000e+00 0 0 0
392 1 1.2070323429086491e+01 8.4800956836009913e+00 0.0000000000000000e+00 0 0 0
8278 1 1.3690929157724449e+01 8.5810259721299893e+00 0.0000000000000000e+00 1 0 0
353 1 1.4630975216558875e+01 8.9477744423762449e+00 0.0000000000000000e+00 0 0 0
247 1 1.5416196843807930e+01 8.3236325449832762e+00 0.0000000000000000e+00 0 0 0
212 1 1.7776959474202627e+01 8.5430800579902595e+00 0.0000000000000000e+00 0 0 0
2478 1 2.0172464184537130e+01 8.6909871852172706e+00 0.0000000000000000e+00 0 0 0
24 1 2.1847031459894318e+01 8.8893365579406911e+00 0.0000000000000000e+00 0 0 0
4201 1 2.2493899159319135e+01 8.0989446970686156e+00 0.0000000000000000e+00 0 0 0
2084 1 2.3453332809915718e+01 8.2382648156520393e+00 0.0000000000000000e+00 0 0 0
2290 1 2.4104193960621505e+01 8.9585860747128052e+00 0.0000000000000000e+00 0 0 0
161 1 2.5362732465643040e-01 9.5344974543213077e+00 0.0000000000000000e+00 0 0 0
266 1 3.6691005879854734e+00 1.0079267652001779e+01 0.0000000000000000e+00 0 0 0
9935 1 5.7399238650946494e+00 9.9462558114373856e+00 0.0000000000000000e+00 1 1 0
9995 1 7.4020725454792773e+00 9.6504098120937911e+00 0.0000000000000000e+00 1 1 0
2202 1 1.1693323970207979e+01 9.4521137814629572e+00 0.0000000000000000e+00 0 0 0
9787 1 1.0702440119833552e+01 9.5918211281568855e+00 0.0000000000000000e+00 1 1 0
194 1 1.2328351001364132e+01 1.0181041619763544e+01 0.0000000000000000e+00 0 0 0
90 1 1.4799918684807974e+01 9.9069964437452960e+00 0.0000000000000000e+00 0 0 0
2345 1 1.5781665597150756e+01 1.0333250106953090e+01 0.0000000000000000e+00 0 0 0
196 1 1.6494986510679027e+01 9.6267481402455992e+00 0.0000000000000000e+00 0 0 0
192 1 1.7474980125620704e+01 9.4920004518258345e+00 0.0000000000000000e+00 0 0 0
398 1 1.8062021432694195e+01 1.0287404252435515e+01 0.0000000000000000e+00 0 0 0
2531 1 1.9023144015251280e+01 1.0140275782153108e+01 0.0000000000000000e+00 0 0 0
279 1 2.0919251828436405e+01 9.3359069853950700e+00 0.0000000000000000e+00 0 0 0
2496 1 2.4000692884149817e+01 9.9358635609842754e+00 0.0000000000000000e+00 0 0 0
2457 1 2.5661008279611174e+01 1.0088904201097042e+01 0.0000000000000000e+00 0 0 0
145 1 2.8441439801152762e-01 1.0531374849696574e+01 0.0000000000000000e+00 0 0 0
9929 1 1.1848004434499688e+00 1.0974105825932622e+01 0.0000000000000000e+00 1 1 0
8053 1 2.0578942603777626e+00 1.0537786504744528e+01 0.0000000000000000e+00 1 0 0
9808 1 3.0017324027764203e+00 1.0829208158305306e+01 0.0000000000000000e+00 1 1 0
9877 1 5.0113245921070417e+00 1.0612389717460353e+01 0.0000000000000000e+00 1 1 0
9850 1 6.6794317802588781e+00 1.0304987734285632e+01 0.0000000000000000e+00 1 1 0
9951 1 6.9460003822711078e+00 1.1260406550292197e+01 0.0000000000000000e+00 1 1 0
113 1 1.0383754617540561e+01 1.0506334664631716e+01 0.0000000000000000e+00 0 0 0
8099 1 9.7975695634032576e+00 1.1331173258902087e+01 0.0000000000000000e+00 1 0 0
62 1 1.3107444499879325e+01 1.0795183374438892e+01 0.0000000000000000e+00 0 0 0
106 1 1.4066483095188730e+01 1.0565035489607292e+01 0.0000000000000000e+00 0 0 0
105 1 1.5975391635622410e+01 1.1329270137488423e+01 0.0000000000000000e+00 0 0 0
293 1 1.7738862995906850e+01 1.1199260126204800e+01 0.0000000000000000e+00 0 0 0
397 1 1.9841858308349035e+01 1.0692427783555065e+01 0.0000000000000000e+00 0 0 0
138 1 2.0781155754212030e+01 1.0329987086585140e+01 0.0000000000000000e+00 0 0 0
160 1 2.1558152950829236e+01 1.0929531946706094e+01 0.0000000000000000e+00 0 0 0
2083 1 2.3123635954489487e+01 1.0387172828997922e+01 0.0000000000000000e+00 0 0 0
2284 1 2.2510298512269063e+01 1.1175646774679137e+01 0.0000000000000000e+00 0 0 0
2426 1 2.4798697804528590e+01 1.0551350165974181e+01 0.0000000000000000e+00 0 0 0
224 1 1.2417539568351161e+00 1.1995503817318289e+01 0.0000000000000000e+00 0 0 0
8059 1 4.0438311399326604e-01 1.2503991506180602e+01 0.0000000000000000e+00 1 0 0
8335 1 3.3382301976883038e+00 1.1752774064631879e+01 0.0000000000000000e+00 1 0 0
8080 1 4.2279629235597866e+00 1.2181290856001572e+01 0.0000000000000000e+00 1 0 0
8031 1 5.0055817663019218e+00 1.1571184358998192e+01 0.0000000000000000e+00 1 0 0
9960 1 7.8364467276871173e+00 1.1702663881990212e+01 0.0000000000000000e+00 1 1 0
323 1 8.7865336627905180e+00 1.1428542574244560e+01 0.0000000000000000e+00 0 0 0
8237 1 1.2569757748782514e+01 1.2680466305858991e+01 0.0000000000000000e+00 1 0 0
8376 1 1.2881186461256625e+01 1.1756661835777589e+01 0.0000000000000000e+00 1 0 0
108 1 1.5231425249034572e+01 1.1961354494881636e+01 0.0000000000000000e+00 0 0 0
345 1 1.6884702344901097e+01 1.1720220429842753e+01 0.0000000000000000e+00 0 0 0
255 1 1.9682523463595523e+01 1.1668996200080210e+01 0.0000000000000000e+00 0 0 0
2265 1 2.0047280474054780e+01 1.2599984015984038e+01 0.0000000000000000e+00 0 0 0
518 1 2.2920215353579035e+01 1.2063347289103485e+01 0.0000000000000000e+00 0 0 0
2143 1 2.4800748985097972e+01 1.1551434173791987e+01 0.0000000000000000e+00 0 0 0
4386 1 2.5471884722895144e+01 1.2276683003970376e+01 0.0000000000000000e+00 0 0 0
351 1 5.4948177087450556e-01 1.3504542362562415e+01 0.0000000000000000e+00 0 0 0
9923 1 4.3170459497469835e+00 1.3180564256644836e+01 0.0000000000000000e+00 1 1 0
171 1 5.1875268599387541e+00 1.3667033648312440e+01 0.0000000000000000e+00 0 0 0
2267 1 6.0886876388619422e+00 1.3198222894383125e+01 0.0000000000000000e+00 0 0 0
8137 1 7.0058101647283468e+00 1.3530373610430326e+01 0.0000000000000000e+00 1 0 0
186 1 1.1634441503023488e+01 1.2976355642932161e+01 0.0000000000000000e+00 0 0 0
290 1 1.3251854027381279e+01 1.3392330591704662e+01 0.0000000000000000e+00 0 0 0
204 1 1.5300277543446327e+01 1.2921551059426074e+01 0.0000000000000000e+00 0 0 0
1762 1 1.4939596576328391e+01 1.3843531282395459e+01 0.0000000000000000e+00 0 1 0
359 1 1.7028335263977123e+01 1.2734032555993730e+01 0.0000000000000000e+00 0 0 0
294 1 1.7234180589103484e+01 1.3696506322227657e+01 0.0000000000000000e+00 0 0 0
2376 1 1.9403222275227893e+01 1.3338252279980551e+01 0.0000000000000000e+00 0 0 0
2208 1 2.1035576361974748e+01 1.2742647403860559e+01 0.0000000000000000e+00 0 0 0
324 1 2.1781548858650702e+01 1.3404137451662178e+01 0.0000000000000000e+00 0 0 0
2813 1 2.2743730971817204e+01 1.3040552763568371e+01 0.0000000000000000e+00 0 0 0
2354 1 2.3479232584174923e+01 1.3712036358475757e+01 0.0000000000000000e+00 0 0 0
3064 1 1.8839874403954251e+01 6.4169890989892593e+01 0.0000000000000000e+00 0 0 0
454 1 2.0471224075205519e+00 1.4673176923933491e+01 0.0000000000000000e+00 0 0 0
260 1 2.5093577737382220e+00 1.3785977778711546e+01 0.0000000000000000e+00 0 0 0
93 1 3.4939502795634154e+00 1.3736254495193410e+01 0.0000000000000000e+00 0 0 0
508 1 5.2471557838084983e+00 1.4675907937757300e+01 0.0000000000000000e+00 0 0 0
9998 1 7.5746409566823631e+00 1.4343715362000543e+01 0.0000000000000000e+00 1 1 0
8334 1 8.5768158637810661e+00 1.4325022768679142e+01 0.0000000000000000e+00 1 0 0
291 1 9.5198019761640609e+00 1.4605110437939949e+01 0.0000000000000000e+00 0 0 0
8085 1 1.0285482027574513e+01 1.3954667916107475e+01 0.0000000000000000e+00 1 0 0
189 1 1.1272532511945196e+01 1.3885638277544324e+01 0.0000000000000000e+00 0 0 0
133 1 1.1809597899726223e+01 1.4720647172580223e+01 0.0000000000000000e+00 0 0 0
22 1 1.3950089035022614e+01 1.4123958103774477e+01 0.0000000000000000e+00 0 0 0
235 1 1.3529352428313205e+01 1.5030335014578275e+01 0.0000000000000000e+00 0 0 0
2306 1 1.5597042527299696e+01 1.4597553640710704e+01 0.0000000000000000e+00 0 0 0
1961 1 1.6565044604357848e+01 1.4421098314243824e+01 0.0000000000000000e+00 0 1 0
435 1 1.8969812602579605e+01 1.4203233655558831e+01 0.0000000000000000e+00 0 0 0
419 1 2.1537651289258687e+01 1.4354086560034839e+01 0.0000000000000000e+00 0 0 0
2412 1 2.4232711562270357e+01 1.4360144327462121e+01 0.0000000000000000e+00 0 0 0
2372 1 2.5136201320927398e+01 1.3941012077042915e+01 0.0000000000000000e+00 0 0 0
8400 1 2.1830590624757655e+00 1.5633123847342063e+01 0.0000000000000000e+00 1 0 0
2384 1 3.9439143409540582e+00 1.5655047995786642e+01 0.0000000000000000e+00 0 0 0
8375 1 4.9115596673466273e+00 1.5614616565239162e+01 0.0000000000000000e+00 1 0 0
125 1 7.1969747767821008e+00 1.5260982221691970e+01 0.0000000000000000e+00 0 0 0
9980 1 9.7882043349766992e+00 1.5567298705745470e+01 0.0000000000000000e+00 1 1 0
315 1 1.0665493334854276e+01 1.5965441191494198e+01 0.0000000000000000e+00 0 0 0
250 1 1.2585009277740948e+01 1.5309190824061364e+01 0.0000000000000000e+00 0 0 0
1974 1 1.4223550820026542e+01 1.5732600783022713e+01 0.0000000000000000e+00 0 1 0
180 1 1.5217144037114625e+01 1.5646352493989575e+01 0.0000000000000000e+00 0 0 0
2404 1 1.9003137783437648e+01 1.5192507331661702e+01 0.0000000000000000e+00 0 0 0
233 1 1.8623448877465854e+01 1.6132500277715558e+01 0.0000000000000000e+00 0 0 0
369 1 2.0533680081796231e+01 1.5707890092177079e+01 0.0000000000000000e+00 0 0 0
2615 1 2.1481461893337528e+01 1.5344922657844707e+01 0.0000000000000000e+00 0 0 0
298 1 2.2186610260515405e+01 1.6023046602481632e+01 0.0000000000000000e+00 0 0 0
2474 1 2.3139428039362528e+01 1.5704278883471655e+01 0.0000000000000000e+00 0 0 0
2445 1 2.4100012629930514e+01 1.5348687241559920e+01 0.0000000000000000e+00 0 0 0
2534 1 2.4891888905118719e+01 1.5962625502592690e+01 0.0000000000000000e+00 0 0 0
8537 1 1.3744268581783065e-01 2.0029735248232679e+01 0.0000000000000000e+00 1 0 0
577 1 2.5790126224168368e+01 1.3222772146670502e+01 0.0000000000000000e+00 0 0 0
9895 1 3.0633168456109887e+00 1.6101313359319089e+01 0.0000000000000000e+00 1 1 0
8295 1 3.1324161284331589e+00 1.7075632415504142e+01 0.0000000000000000e+00 1 0 0
432 1 5.5145553040585016e+00 1.6383085702876926e+01 0.0000000000000000e+00 0 0 0
8260 1 6.4350989466433761e+00 1.6778921328835398e+01 0.0000000000000000e+00 1 0 0
326 1 7.2675788030256641e+00 1.6243194154446318e+01 0.0000000000000000e+00 0 0 0
270 1 8.1565684270893168e+00 1.6653110655326191e+01 0.0000000000000000e+00 0 0 0
222 1 9.0294703292725931e+00 1.6220095945755244e+01 0.0000000000000000e+00 0 0 0
167 1 1.1393258144477910e+01 1.6627595400622805e+01 0.0000000000000000e+00 0 0 0
83 1 1.2317648182325218e+01 1.6288030714896657e+01 0.0000000000000000e+00 0 0 0
2264 1 1.3025312763614112e+01 1.6997851809083194e+01 0.0000000000000000e+00 0 0 0
2509 1 1.5905659401095331e+01 1.6337381723617373e+01 0.0000000000000000e+00 0 0 0
2392 1 1.7658075235034065e+01 1.6258501230928768e+01 0.0000000000000000e+00 0 0 0
142 1 1.6833041067445127e+01 1.6777850294430653e+01 0.0000000000000000e+00 0 0 0
2423 1 1.9290858783842374e+01 1.6869246510062037e+01 0.0000000000000000e+00 0 0 0
2458 1 2.0295284383846933e+01 1.6651281460455230e+01 0.0000000000000000e+00 0 0 0
2574 1 2.1105949327693764e+01 1.7302340644395667e+01 0.0000000000000000e+00 0 0 0
4408 1 2.2063175218947407e+01 1.6997660407561710e+01 0.0000000000000000e+00 0 0 0
2498 1 2.4676758092627612e+01 1.6936945080062735e+01 0.0000000000000000e+00 0 0 0
8357 1 7.8737126824031112e-01 1.8363437106501745e+01 0.0000000000000000e+00 1 0 0
376 1 1.6046945832009474e+00 1.7829464332727813e+01 0.0000000000000000e+00 0 0 0
467 1 2.5848051785988777e+00 1.7903973743198055e+01 0.0000000000000000e+00 0 0 0
163 1 6.4352853820270290e+00 1.7754212857878514e+01 0.0000000000000000e+00 0 0 0
128 1 7.3387962578595864e+00 1.8216359618381713e+01 0.0000000000000000e+00 0 0 0
468 1 8.2152668641475408e+00 1.7710780086580719e+01 0.0000000000000000e+00 0 0 0
8319 1 9.0841651579970026e+00 1.8223588640352670e+01 0.0000000000000000e+00 1 0 0
1 1 1.1203029200541994e+01 1.7594581497197947e+01 0.0000000000000000e+00 0 0 0
137 1 1.3342899981920317e+01 1.7948034875176326e+01 0.0000000000000000e+00 0 0 0
232 1 1.4332143700450956e+01 1.8077534255887418e+01 0.0000000000000000e+00 0 0 0
2223 1 1.6856891569750246e+01 1.7775082509746689e+01 0.0000000000000000e+00 0 0 0
2304 1 1.8346285435068310e+01 1.8451189035967843e+01 0.0000000000000000e+00 0 0 0
287 1 1.9127439205298167e+01 1.7838119369804446e+01 0.0000000000000000e+00 0 0 0
540 1 2.0927744899268134e+01 1.8277511102363381e+01 0.0000000000000000e+00 0 0 0
297 1 2.2747122299948295e+01 1.7717132673230189e+01 0.0000000000000000e+00 0 0 0
2570 1 2.4899541605903011e+01 1.7903526165008650e+01 0.0000000000000000e+00 0 0 0
185 1 8.2220718670401627e-01 1.9344410719974455e+01 0.0000000000000000e+00 0 0 0
8173 1 3.0498764581572120e+00 1.8794165070657399e+01 0.0000000000000000e+00 1 0 0
175 1 4.0213084577869322e+00 1.8868089538428841e+01 0.0000000000000000e+00 0 0 0
563 1 5.6016849141485539e+00 1.8274347780822673e+01 0.0000000000000000e+00 0 0 0
727 1 4.9801943943983487e+00 1.9038335390477837e+01 0.0000000000000000e+00 0 0 0
226 1 7.3125887517981356e+00 1.9202845313045366e+01 0.0000000000000000e+00 0 0 0
8193 1 9.2259481755962653e+00 1.9214511713610925e+01 0.0000000000000000e+00 1 0 0
416 1 1.1652268080263172e+01 1.8487815616658409e+01 0.0000000000000000e+00 0 0 0
268 1 1.0991345877539489e+01 1.9219035076508327e+01 0.0000000000000000e+00 0 0 0
213 1 1.2656151804468283e+01 1.8648151453654407e+01 0.0000000000000000e+00 0 0 0
2506 1 1.5087222833013197e+01 1.8686531248717323e+01 0.0000000000000000e+00 0 0 0
314 1 1.7352101968593519e+01 1.8595564658609614e+01 0.0000000000000000e+00 0 0 0
140 1 1.6966967633967535e+01 1.9495345036276397e+01 0.0000000000000000e+00 0 0 0
2492 1 2.1139372858103226e+01 1.9252834295278923e+01 0.0000000000000000e+00 0 0 0
2182 1 2.2054560696243616e+01 1.9628550521697981e+01 0.0000000000000000e+00 0 0 0
4244 1 2.3356548430896762e+01 1.8470906832634579e+01 0.0000000000000000e+00 0 0 0
2427 1 2.4313373436602017e+01 1.8704145165007503e+01 0.0000000000000000e+00 0 0 0
1118 1 2.5487688335017776e+01 6.4146323194311805e+01 0.0000000000000000e+00 0 0 0
363 1 2.5553527456358744e+00 1.9641341290406782e+01 0.0000000000000000e+00 0 0 0
183 1 2.7726574067402598e+00 2.0609317362013844e+01 0.0000000000000000e+00 0 0 0
337 1 5.3814082555292897e+00 1.9924486839277890e+01 0.0000000000000000e+00 0 0 0
6120 1 6.1652818901884539e+00 2.0552660545889704e+01 0.0000000000000000e+00 1 0 0
8479 1 7.0686408303638544e+00 2.0146119315696716e+01 0.0000000000000000e+00 1 0 0
327 1 1.0090713259647870e+01 1.9701743112902236e+01 0.0000000000000000e+00 0 0 0
328 1 1.0034426797129765e+01 2.0698642842234783e+01 0.0000000000000000e+00 0 0 0
2184 1 1.2933764731647477e+01 1.9635088240512140e+01 0.0000000000000000e+00 0 0 0
401 1 1.2549114550883909e+01 2.0531446868360067e+01 0.0000000000000000e+00 0 0 0
8233 1 1.5298931701682619e+01 1.9648357277070282e+01 0.0000000000000000e+00 1 0 0
339 1 1.4463980842857588e+01 2.0286119411166435e+01 0.0000000000000000e+00 0 0 0
2402 1 1.6199339097349647e+01 2.0087182537327653e+01 0.0000000000000000e+00 0 0 0
2386 1 1.9754404053032612e+01 2.0588301070358771e+01 0.0000000000000000e+00 0 0 0
2408 1 2.0391421420766811e+01 1.9869793915491719e+01 0.0000000000000000e+00 0 0 0
2331 1 2.2678606753961738e+01 2.0409606528388043e+01 0.0000000000000000e+00 0 0 0
2441 1 2.4607442275641343e+01 1.9640313008765542e+01 0.0000000000000000e+00 0 0 0
2582 1 2.5277836975415305e+01 2.0350015672948572e+01 0.0000000000000000e+00 0 0 0
8475 1 1.1951067409884473e+00 2.1614642212719342e+01 0.0000000000000000e+00 1 0 0
378 1 4.2250433079414695e-01 2.0986182329716133e+01 0.0000000000000000e+00 0 0 0
8300 1 3.2687576016533302e+00 2.1462895320373033e+01 0.0000000000000000e+00 1 0 0
2210 1 6.0943885287538002e+00 2.1541471581055081e+01 0.0000000000000000e+00 0 0 0
554 1 8.6335047111238516e+00 2.1732319647571416e+01 0.0000000000000000e+00 0 0 0
245 1 9.6261733901085513e+00 2.1578663784771255e+01 0.0000000000000000e+00 0 0 0
2401 1 1.2773053335825971e+01 2.1489162671417446e+01 0.0000000000000000e+00 0 0 0
289 1 1.4551895106420098e+01 2.1279371504059913e+01 0.0000000000000000e+00 0 0 0
360 1 1.5514643235809137e+01 2.1624091057950835e+01 0.0000000000000000e+00 0 0 0
595 1 1.6351136004902539e+01 2.1055612770952870e+01 0.0000000000000000e+00 0 0 0
190 1 1.7277176566960378e+01 2.1422641335425194e+01 0.0000000000000000e+00 0 0 0
438 1 1.8085162324750439e+01 2.0805213068630955e+01 0.0000000000000000e+00 0 0 0
95 1 1.8989171838961617e+01 2.1238920732997418e+01 0.0000000000000000e+00 0 0 0
2452 1 2.2950255261321441e+01 2.1334448850616063e+01 0.0000000000000000e+00 0 0 0
2491 1 2.5026297007185580e+01 2.1305876692925299e+01 0.0000000000000000e+00 0 0 0
8274 1 1.3940947149694931e+00 2.2592406972889979e+01 0.0000000000000000e+00 1 0 0
8310 1 2.3286570028644529e+00 2.2876638659952221e+01 0.0000000000000000e+00 1 0 0
2362 1 3.2262973850562942e+00 2.2439496375767931e+01 0.0000000000000000e+00 0 0 0
259 1 6.7463249181529132e+00 2.2248845780528434e+01 0.0000000000000000e+00 0 0 0
319 1 7.7106683560752458e+00 2.2035243509480360e+01 0.0000000000000000e+00 0 0 0
248 1 1.0176990810922428e+01 2.2383557100788394e+01 0.0000000000000000e+00 0 0 0
500 1 1.2062021759614533e+01 2.2152967010669332e+01 0.0000000000000000e+00 0 0 0
4225 1 1.3694206049592632e+01 2.1860958482406957e+01 0.0000000000000000e+00 0 0 0
211 1 1.3902544345150142e+01 2.2842010280603208e+01 0.0000000000000000e+00 0 0 0
307 1 1.5656441291150138e+01 2.2660985712848795e+01 0.0000000000000000e+00 0 0 0
2631 1 1.7410964484538749e+01 2.2443603477607056e+01 0.0000000000000000e+00 0 0 0
373 1 1.8354385805220574e+01 2.2812403935430304e+01 0.0000000000000000e+00 0 0 0
2469 1 1.9137613011445268e+01 2.2236740136974376e+01 0.0000000000000000e+00 0 0 0
313 1 2.0121686361369388e+01 2.2489542836731136e+01 0.0000000000000000e+00 0 0 0
2554 1 2.1823934928802640e+01 2.2610664374539837e+01 0.0000000000000000e+00 0 0 0
2555 1 2.2773787380283490e+01 2.2323026339885736e+01 0.0000000000000000e+00 0 0 0
320 1 2.3512407423449051e+01 2.2965314546267813e+01 0.0000000000000000e+00 0 0 0
2637 1 2.4486354526096523e+01 2.3077641551423575e+01 0.0000000000000000e+00 0 0 0
2843 1 2.5084643194662370e+01 2.2305266983166774e+01 0.0000000000000000e+00 0 0 0
8419 1 7.2694170586308837e-01 2.3314920622478436e+01 0.0000000000000000e+00 1 0 0
387 1 4.0026406962519534e+00 2.3079619288904208e+01 0.0000000000000000e+00 0 0 0
403 1 4.1233779629573588e+00 2.4042511752995651e+01 0.0000000000000000e+00 0 0 0
425 1 6.5429395465411204e+00 2.3207537083267745e+01 0.0000000000000000e+00 0 0 0
239 1 7.1252375796792204e+00 2.4007855173089613e+01 0.0000000000000000e+00 0 0 0
384 1 8.1044122197741064e+00 2.3880894635393471e+01 0.0000000000000000e+00 0 0 0
2503 1 1.0427423232189792e+01 2.3335920361142097e+01 0.0000000000000000e+00 0 0 0
356 1 1.1326567009256706e+01 2.3728705177031443e+01 0.0000000000000000e+00 0 0 0
8320 1 1.2144366151446695e+01 2.3160918315730722e+01 0.0000000000000000e+00 1 0 0
459 1 1.3132682843967171e+01 2.3478811197542839e+01 0.0000000000000000e+00 0 0 0
613 1 1.4815034260632665e+01 2.3224110824866141e+01 0.0000000000000000e+00 0 0 0
338 1 1.6598588303514244e+01 2.3017177946586695e+01 0.0000000000000000e+00 0 0 0
2472 1 1.6662135951841350e+01 2.4004220969732206e+01 0.0000000000000000e+00 0 0 0
2589 1 2.0917249042182902e+01 2.3024559029428442e+01 0.0000000000000000e+00 0 0 0
600 1 2.0823229515268807e+01 2.4021543440994321e+01 0.0000000000000000e+00 0 0 0
344 1 2.4806996419161923e+01 2.4007327450513561e+01 0.0000000000000000e+00 0 0 0