LAMMPS data file via write_data, version 15 May 2015, timestep = 2050000

2500 atoms
1 atom types

0.0000000000000000e+00 1.5811388300841898e+02 xlo xhi
0.0000000000000000e+00 1.5811388300841898e+02 ylo yhi
0.0000000000000000e+00 3.1622776601683795e+00 zlo zhi

Masses

1 1

Atoms # atomic

488 1 1.2386865468493637e+01 7.7764180559255578e+01 0.0000000000000000e+00 -1 0 0
1098 1 1.8816261977738451e+00 5.1201528254308659e-01 0.0000000000000000e+00 0 0 0
1695 1 4.7744057564331216e-01 6.3590031860422179e+01 0.0000000000000000e+00 2 -1 0
1018 1 1.1015310466382132e+01 2.6647387771062925e-01 0.0000000000000000e+00 0 0 0
2361 1 5.7523306874648412e+00 2.9153916865264246e-01 0.0000000000000000e+00 1 1 0
1269 1 1.7648466923999855e+01 7.4573293746571223e-01 0.0000000000000000e+00 -1 0 0
862 1 1.0889988135841461e+01 7.9008728289331827e+01 0.0000000000000000e+00 0 1 0
1570 1 1.4969262197366241e+01 9.5389977780543178e-01 0.0000000000000000e+00 1 1 0
1637 1 1.5745308935493263e+01 3.5241874000063783e-01 0.0000000000000000e+00 1 1 0
2309 1 1.2874203360721838e+01 7.6938051371758874e+01 0.0000000000000000e+00 1 -2 0
2138 1 1.6693463157541675e+01 5.8020692484177405e-01 0.0000000000000000e+00 1 0 0
1395 1 1.8604013774842169e+01 9.8821738101298340e-01 0.0000000000000000e+00 0 1 0
701 1 1.9347358057690183e+01 1.6070924807452480e+00 0.0000000000000000e+00 0 1 0
223 1 1.4045353857185518e+01 6.7814202677547430e-01 0.0000000000000000e+00 1 0 0
316 1 2.2358726734202506e+01 2.4356326913419798e-01 0.0000000000000000e+00 0 1 0
1095 1 2.3109067458526056e+01 8.8238013437651164e-01 0.0000000000000000e+00 -1 0 0
129 1 2.4172778836128819e+00 1.3450933612368676e+00 0.0000000000000000e+00 0 -2 0
2355 1 1.9539307999381688e+01 2.5619211784442459e+00 0.0000000000000000e+00 1 1 0
1216 1 2.3915826706839521e+01 1.4438357895826488e+00 0.0000000000000000e+00 0 1 0
1319 1 2.8201332616282202e+00 2.2713334701779844e+00 0.0000000000000000e+00 0 1 0
1104 1 3.8037868145434151e+00 2.2737106744162472e+00 0.0000000000000000e+00 0 1 0
1974 1 4.7862276595975581e+00 2.1660484115241649e+00 0.0000000000000000e+00 1 1 0
1356 1 5.4980699091563361e+00 2.8520560791589205e+00 0.0000000000000000e+00 1 2 0
734 1 6.2107384675484898e+00 3.5110342990159205e+00 0.0000000000000000e+00 1 1 0
355 1 1.7221968072776878e+01 4.1789305876031841e+00 0.0000000000000000e+00 0 0 0
2077 1 1.8896849267505370e+01 3.3180744169788463e+00 0.0000000000000000e+00 0 0 0
1077 1 1.7945461963621415e+01 3.5288922104636939e+00 0.0000000000000000e+00 1 0 0
410 1 2.2646502143461689e+01 3.7087132734523975e+00 0.0000000000000000e+00 1 1 0
58 1 2.3394589140957471e+01 3.0580212341229016e+00 0.0000000000000000e+00 -1 0 0
1932 1 2.4133924871065503e+01 2.4143331515493438e+00 0.0000000000000000e+00 0 0 0
2224 1 2.5097778535717776e+01 2.6897728157826468e+00 0.0000000000000000e+00 1 0 0
389 1 2.6480798519800658e+01 3.6503751396225632e+00 0.0000000000000000e+00 1 2 0
241 1 1.3709958845048220e+00 3.1930826710344031e+00 0.0000000000000000e+00 0 0 0
585 1 4.0105010793814028e-01 3.2467882103519932e+00 0.0000000000000000e+00 1 0 0
1862 1 2.3561351691638470e+00 3.1452332416275626e+00 0.0000000000000000e+00 0 0 0
90 1 2.8521388395972358e+00 4.0191790341288307e+00 0.0000000000000000e+00 0 -1 0
2279 1 7.1789495518259905e+00 3.4777787523410373e+00 0.0000000000000000e+00 1 0 0
727 1 7.9866638053190213e+00 4.0495735786014002e+00 0.0000000000000000e+00 1 0 0
657 1 1.6229197586045526e+01 4.2309950603014945e+00 0.0000000000000000e+00 0 2 0
2050 1 1.5237101263010446e+01 4.1411660243557114e+00 0.0000000000000000e+00 1 1 0
2037 1 2.1756816502983185e+01 4.1236055311158886e+00 0.0000000000000000e+00 1 0 0
1670 1 2.5519695516161647e+01 3.5586805699954525e+00 0.0000000000000000e+00 1 0 0
62 1 2.7124048617979913e+01 4.3923854287844231e+00 0.0000000000000000e+00 0 0 0
1431 1 2.9846794486113937e+00 4.9889121166659685e+00 0.0000000000000000e+00 0 1 0
2310 1 8.2787155549486524e+00 5.0028577439396562e+00 0.0000000000000000e+00 2 1 0
1896 1 9.9090973399200504e+00 5.5320530195603439e+00 0.0000000000000000e+00 1 1 0
1499 1 1.0734928940595907e+01 5.0194787171588766e+00 0.0000000000000000e+00 1 2 0
890 1 1.1724758321034226e+01 4.8527140607062300e+00 0.0000000000000000e+00 0 1 0
1497 1 1.2702425064005338e+01 4.9126466426155018e+00 0.0000000000000000e+00 0 0 0
493 1 1.3664484946205082e+01 4.8681349463028321e+00 0.0000000000000000e+00 0 0 0
1340 1 1.4645778352899345e+01 4.9139865065537940e+00 0.0000000000000000e+00 1 0 0
1786 1 2.1534794087834733e+01 5.0746616032566614e+00 0.0000000000000000e+00 1 1 0
1070 1 2.3460104227701002e+01 5.6426832917742091e+00 0.0000000000000000e+00 1 1 0
2061 1 2.4213064022713436e+01 5.0182931194527702e+00 0.0000000000000000e+00 1 0 0
2267 1 2.4945672162391208e+01 4.3656912328163502e+00 0.0000000000000000e+00 0 0 0
1984 1 2.7917535652009498e+01 4.9424409751433860e+00 0.0000000000000000e+00 0 0 0
739 1 2.8571549116376872e+01 5.6751270478013440e+00 0.0000000000000000e+00 0 0 0
2465 1 3.3845438568904580e+00 5.8965740572340533e+00 0.0000000000000000e+00 1 1 0
1366 1 3.9518204298844530e+00 6.6998113346698069e+00 0.0000000000000000e+00 1 2 0
1271 1 8.9575617907940366e+00 5.6994714656983909e+00 0.0000000000000000e+00 1 0 0
1242 1 8.6798984338237748e+00 6.6388175774650637e+00 0.0000000000000000e+00 1 1 0
1305 1 1.5029784096073733e+01 5.8252310266005676e+00 0.0000000000000000e+00 2 1 0
1915 1 2.1024168296585337e+01 6.6689080860277477e+00 0.0000000000000000e+00 0 0 0
1262 1 2.1799508539785243e+01 6.0311490038300279e+00 0.0000000000000000e+00 -1 1 0
296 1 2.2762291189170458e+01 6.3667447635042027e+00 0.0000000000000000e+00 1 -1 0
791 1 2.9084465884054964e+01 6.5399949521042107e+00 0.0000000000000000e+00 -1 0 0
1374 1 4.7046487319760990e+00 7.3434517607744176e+00 0.0000000000000000e+00 1 0 0
153 1 8.6736914923355357e+00 7.6151658841088228e+00 0.0000000000000000e+00 0 0 0
2286 1 1.5357417805321393e+01 6.7413625507991819e+00 0.0000000000000000e+00 0 1 0
995 1 1.5518861337822390e+01 7.7100904835758248e+00 0.0000000000000000e+00 1 1 0
1958 1 2.0079808997078686e+01 6.9664901150190488e+00 0.0000000000000000e+00 0 0 0
1531 1 2.3010442606649459e+01 7.2989891361101202e+00 0.0000000000000000e+00 2 0 0
2467 1 2.2856835594736033e+01 8.2549272244474299e+00 0.0000000000000000e+00 2 0 0
794 1 2.8539174077535961e+01 7.3501111506019843e+00 0.0000000000000000e+00 0 -1 0
217 1 5.2917898698317156e+00 8.1134364682489597e+00 0.0000000000000000e+00 1 0 0
1062 1 6.1722908853128988e+00 8.5544625465028279e+00 0.0000000000000000e+00 0 -1 0
2160 1 7.1536455241557846e+00 8.4582542528696862e+00 0.0000000000000000e+00 1 0 0
2065 1 8.1782881303204675e+00 8.4589563763678530e+00 0.0000000000000000e+00 1 1 0
36 1 1.6188079495376112e+01 8.4426045998648398e+00 0.0000000000000000e+00 -2 -1 0
298 1 1.6961869336953278e+01 9.0624402695324662e+00 0.0000000000000000e+00 0 0 0
2487 1 1.7903969832235678e+01 8.8205895159242544e+00 0.0000000000000000e+00 1 0 0
1422 1 1.8832168202087747e+01 8.4813933230695469e+00 0.0000000000000000e+00 1 0 0
1823 1 1.9417306707247487e+01 7.7104689473899164e+00 0.0000000000000000e+00 0 1 0
1111 1 2.2717950083525082e+01 9.2241986757963446e+00 0.0000000000000000e+00 0 1 0
2346 1 2.8730094089118268e+01 8.3154127849169530e+00 0.0000000000000000e+00 1 0 0
1140 1 2.3222532860008030e+01 1.0097372622993989e+01 0.0000000000000000e+00 -1 1 0
1967 1 2.7848138642791106e+01 9.8411637492413906e+00 0.0000000000000000e+00 0 1 0
1028 1 2.8689218069979738e+01 9.3570130761315990e+00 0.0000000000000000e+00 0 1 0
2358 1 2.9580457985597668e+01 9.8015851331578521e+00 0.0000000000000000e+00 1 2 0
1210 1 2.3617726451588073e+01 1.0993994319009994e+01 0.0000000000000000e+00 1 1 0
1588 1 2.4547943366867855e+01 1.1284751925391401e+01 0.0000000000000000e+00 2 0 0
830 1 2.5501024411329528e+01 1.1444260172575106e+01 0.0000000000000000e+00 2 -1 0
1635 1 2.6453569537536993e+01 1.1201114178641550e+01 0.0000000000000000e+00 1 0 0
1589 1 2.7092637140464106e+01 1.0452164644657021e+01 0.0000000000000000e+00 1 0 0
2112 1 3.0462206688098057e+01 1.0238570167511465e+01 0.0000000000000000e+00 0 1 0
2229 1 3.1393653651193503e+01 1.0454621766922218e+01 0.0000000000000000e+00 1 0 0
1213 1 1.2697788824671555e+01 2.1705138776482801e+01 0.0000000000000000e+00 0 0 0
520 1 1.3685603690089389e+01 2.1633766037610759e+01 0.0000000000000000e+00 1 1 0
2197 1 1.4578904867189193e+01 2.2037507393067649e+01 0.0000000000000000e+00 2 0 0
777 1 1.1396693196719040e+01 2.3162607533975809e+01 0.0000000000000000e+00 1 2 0
485 1 1.1921672144300638e+01 2.2333297792930960e+01 0.0000000000000000e+00 0 2 0
379 1 1.5457359083674881e+01 2.2489607396638323e+01 0.0000000000000000e+00 0 0 0
708 1 1.6284886696874594e+01 2.2982705801723800e+01 0.0000000000000000e+00 0 1 0
1294 1 1.0417242755558997e+01 2.4834676878369777e+01 0.0000000000000000e+00 0 0 0
1239 1 1.1028918025070812e+01 2.4068825728468209e+01 0.0000000000000000e+00 1 1 0
1848 1 1.6996872763127950e+01 2.3638832059767179e+01 0.0000000000000000e+00 1 -1 0
1693 1 1.7416364977300589e+01 2.4526419238374803e+01 0.0000000000000000e+00 1 0 0
2107 1 9.7655051711876535e+00 2.5572169518915498e+01 0.0000000000000000e+00 0 -1 0
2249 1 1.7193487224723377e+01 2.5469786887526510e+01 0.0000000000000000e+00 1 1 0
1875 1 8.3892699883324600e+00 2.6706251097184694e+01 0.0000000000000000e+00 2 1 0
440 1 8.8279813502720188e+00 2.5839271191389678e+01 0.0000000000000000e+00 -1 0 0
695 1 1.7594517303823235e+01 2.7388917432883972e+01 0.0000000000000000e+00 1 1 0
1283 1 1.7492129802374514e+01 2.6386510996381791e+01 0.0000000000000000e+00 2 1 0
780 1 7.3262469646244552e+00 2.8316388564294424e+01 0.0000000000000000e+00 1 0 0
1051 1 7.6861992059916444e+00 2.7374790144447218e+01 0.0000000000000000e+00 0 0 0
1986 1 1.6993199638272849e+01 2.8151462953055251e+01 0.0000000000000000e+00 1 0 0
728 1 6.5151454610363269e+00 2.8884859630303225e+01 0.0000000000000000e+00 1 0 0
1656 1 1.5305095499711159e+01 2.9068286377806039e+01 0.0000000000000000e+00 1 -1 0
1246 1 1.6023058142825526e+01 2.8364400038596255e+01 0.0000000000000000e+00 0 -1 0
1558 1 4.9687550267416176e+00 3.0109400887250739e+01 0.0000000000000000e+00 3 0 0
1306 1 5.6857498798000998e+00 2.9414742127000594e+01 0.0000000000000000e+00 0 -1 0
464 1 1.0943336828965805e+01 3.0429926063101700e+01 0.0000000000000000e+00 1 1 0
8 1 1.1901535178930576e+01 3.0702905414993943e+01 0.0000000000000000e+00 1 -1 0
823 1 1.5205267697240904e+01 3.0046914831214593e+01 0.0000000000000000e+00 0 1 0
747 1 4.5289935608311502e+00 3.1006292864493783e+01 0.0000000000000000e+00 1 0 0
1430 1 9.1811259085007570e+00 3.1145304862893934e+01 0.0000000000000000e+00 1 1 0
605 1 1.0126348520726559e+01 3.0989214040664439e+01 0.0000000000000000e+00 0 -1 0
382 1 1.2877895210259581e+01 3.0453614299361821e+01 0.0000000000000000e+00 0 2 0
509 1 1.3745955293629430e+01 3.0913253011461073e+01 0.0000000000000000e+00 0 1 0
1788 1 1.4749261338293001e+01 3.0934417389982510e+01 0.0000000000000000e+00 1 0 0
933 1 1.5231759072650124e+01 3.1786899325105598e+01 0.0000000000000000e+00 1 0 0
2183 1 4.9932266917586814e+00 3.1892591533755862e+01 0.0000000000000000e+00 1 0 0
858 1 8.7040576579934683e+00 3.3028335481897294e+01 0.0000000000000000e+00 1 0 0
1725 1 8.7510168755087978e+00 3.2040090702788440e+01 0.0000000000000000e+00 1 -1 0
902 1 1.5850777993583199e+01 3.2573182823755793e+01 0.0000000000000000e+00 0 1 0
2005 1 3.5453617742299842e-01 3.2543565833017624e+01 0.0000000000000000e+00 2 -1 0
538 1 8.8546894868203885e-01 3.3365442974837805e+01 0.0000000000000000e+00 1 -2 0
2319 1 4.7415782951172902e+00 3.3755235132300818e+01 0.0000000000000000e+00 1 0 0
1884 1 4.6286394966048583e+00 3.2793059977199036e+01 0.0000000000000000e+00 1 0 0
85 1 8.6452427774294485e+00 3.4061007168668475e+01 0.0000000000000000e+00 0 1 0
1893 1 1.5897112263209122e+01 3.3542836996477838e+01 0.0000000000000000e+00 1 1 0
1747 1 1.5388134423188504e+01 3.4372253492988314e+01 0.0000000000000000e+00 0 1 0
2373 1 1.0359820116149028e+00 3.4340783360609457e+01 0.0000000000000000e+00 0 1 0
474 1 5.3778444856821794e+00 3.4508789227347279e+01 0.0000000000000000e+00 0 1 0
1303 1 9.0161593649214371e+00 3.4974968331376225e+01 0.0000000000000000e+00 2 1 0
405 1 1.4450873901654218e+01 3.4683756169463813e+01 0.0000000000000000e+00 0 0 0
2394 1 1.8923626881889992e+00 3.4808561478957706e+01 0.0000000000000000e+00 1 0 0
2122 1 2.4698179350418177e+00 3.5609443137257408e+01 0.0000000000000000e+00 1 1 0
175 1 5.2568316321242516e+00 3.5477734198062251e+01 0.0000000000000000e+00 1 0 0
1610 1 8.4599747390925515e+00 3.5778944575286403e+01 0.0000000000000000e+00 1 0 0
2203 1 1.2913455997762728e+01 3.5888394517591834e+01 0.0000000000000000e+00 1 1 0
1186 1 1.3727263043486943e+01 3.5340044606496356e+01 0.0000000000000000e+00 1 0 0
1116 1 3.4081335841795188e+00 3.6019630438243489e+01 0.0000000000000000e+00 1 0 0
1043 1 4.3677547684535964e+00 3.5963040326683853e+01 0.0000000000000000e+00 1 0 0
2179 1 6.0219633769258243e+00 3.6099696129200460e+01 0.0000000000000000e+00 1 -1 0
700 1 6.9238009147146578e+00 3.6522213050973917e+01 0.0000000000000000e+00 0 0 0
123 1 7.9142126839921394e+00 3.6611231801043409e+01 0.0000000000000000e+00 1 -1 0
1778 1 8.4224546790219073e+00 3.7489545101345094e+01 0.0000000000000000e+00 1 0 0
439 1 8.9967151148888256e+00 3.8295371773020044e+01 0.0000000000000000e+00 1 0 0
938 1 9.9551253620417608e+00 3.8121001559255639e+01 0.0000000000000000e+00 0 0 0
1933 1 1.2489304401108559e+01 3.6767241424650727e+01 0.0000000000000000e+00 1 1 0
2406 1 1.0854456902935095e+01 3.7734852065888525e+01 0.0000000000000000e+00 1 1 0
188 1 1.1780375897630188e+01 3.7416303638528895e+01 0.0000000000000000e+00 1 -1 0
1754 1 1.8243017518246237e+01 4.6839608855765924e+01 0.0000000000000000e+00 0 -1 0
2262 1 1.8526309236656381e+01 4.7775767419212237e+01 0.0000000000000000e+00 0 0 0
2174 1 1.8676968814189095e+01 4.8762955785578804e+01 0.0000000000000000e+00 1 1 0
2389 1 1.8955819476773193e+01 4.9719294415556078e+01 0.0000000000000000e+00 1 1 0
1755 1 2.7151530486403409e+01 4.9338380774211039e+01 0.0000000000000000e+00 -1 1 0
428 1 2.8164285127815134e+01 4.9383747977412362e+01 0.0000000000000000e+00 -1 1 0
774 1 2.9162170290266534e+01 4.9494998075702604e+01 0.0000000000000000e+00 0 0 0
1240 1 2.9798385533884943e+01 4.8733657131727817e+01 0.0000000000000000e+00 1 0 0
2486 1 3.0758986793120609e+01 4.8542430735239954e+01 0.0000000000000000e+00 2 0 0
1649 1 3.1580481975127316e+01 4.9084167224018223e+01 0.0000000000000000e+00 1 0 0
1979 1 1.8354310129486386e+01 5.1325559584008424e+01 0.0000000000000000e+00 2 0 0
28 1 1.9145360188366510e+01 5.0672367902751745e+01 0.0000000000000000e+00 0 -1 0
2283 1 2.0102667157404586e+01 5.1003948430421651e+01 0.0000000000000000e+00 0 1 0
1571 1 2.0880446706773871e+01 5.0401996488556328e+01 0.0000000000000000e+00 1 0 0
1929 1 2.2787711245888918e+01 5.0282809242838510e+01 0.0000000000000000e+00 0 1 0
2304 1 2.3760012242097009e+01 5.0443566653370141e+01 0.0000000000000000e+00 1 0 0
1592 1 2.5493149868458190e+01 5.0055412443304334e+01 0.0000000000000000e+00 1 0 0
2484 1 2.4725222471266374e+01 5.0709007446807654e+01 0.0000000000000000e+00 1 0 0
640 1 2.6199809213223642e+01 4.9416210513243620e+01 0.0000000000000000e+00 0 0 0
1560 1 2.9644581567054136e+01 5.0370374531462772e+01 0.0000000000000000e+00 1 0 0
2456 1 3.0620936044267495e+01 5.0549134548450340e+01 0.0000000000000000e+00 1 2 0
1483 1 3.1504927759745762e+01 5.0082186161129933e+01 0.0000000000000000e+00 0 1 0
1785 1 1.7472495984140330e+01 5.1736068865476874e+01 0.0000000000000000e+00 1 1 0
75 1 2.1825131830601041e+01 5.0203009689083316e+01 0.0000000000000000e+00 0 0 0
946 1 2.4898328170614345e+01 5.1669648452647756e+01 0.0000000000000000e+00 0 -1 0
2029 1 2.9102057974432974e+01 5.1190736880531730e+01 0.0000000000000000e+00 2 -1 0
336 1 1.6849769925643386e+01 5.2484106391005383e+01 0.0000000000000000e+00 0 1 0
564 1 1.6699881917374853e+01 5.3460110932570934e+01 0.0000000000000000e+00 0 0 0
331 1 2.4661209309496090e+01 5.2630538453174509e+01 0.0000000000000000e+00 -1 1 0
1652 1 2.8483480090867889e+01 5.1946924651601243e+01 0.0000000000000000e+00 -1 0 0
1855 1 1.7419888668400027e+01 5.4131422422863118e+01 0.0000000000000000e+00 1 -1 0
386 1 2.4157324070011367e+01 5.3489735904442242e+01 0.0000000000000000e+00 -1 1 0
99 1 2.3777569463604941e+01 5.4416094843017049e+01 0.0000000000000000e+00 1 0 0
1501 1 2.7933538467245945e+01 5.3773418642371020e+01 0.0000000000000000e+00 0 0 0
545 1 2.7983720064324864e+01 5.2782283362606591e+01 0.0000000000000000e+00 -2 -1 0
2111 1 1.8404138052282541e+01 5.4198741770343851e+01 0.0000000000000000e+00 1 0 0
2481 1 1.9275412947789725e+01 5.4659931535193856e+01 0.0000000000000000e+00 2 1 0
2427 1 2.0198546971605754e+01 5.4976964748779650e+01 0.0000000000000000e+00 0 1 0
1568 1 2.1131359229460408e+01 5.5246057574467834e+01 0.0000000000000000e+00 1 -1 0
2147 1 2.2113178612448959e+01 5.5270873978048058e+01 0.0000000000000000e+00 2 -1 0
789 1 2.2830281737971696e+01 5.4593750933905312e+01 0.0000000000000000e+00 2 -1 0
2024 1 2.4429241705873995e+01 5.5188750775370174e+01 0.0000000000000000e+00 0 0 0
1462 1 2.7677391563246797e+01 5.4708442115913705e+01 0.0000000000000000e+00 0 1 0
400 1 3.0403368844561847e+01 5.4912184971254533e+01 0.0000000000000000e+00 -1 0 0
968 1 3.1382222579637570e+01 5.5016668482644079e+01 0.0000000000000000e+00 0 0 0
149 1 2.5016337460738601e+01 5.5954698921220213e+01 0.0000000000000000e+00 0 -1 0
210 1 2.5845974163265069e+01 5.6468295854257462e+01 0.0000000000000000e+00 1 0 0
668 1 2.6813808485962344e+01 5.6416454827760766e+01 0.0000000000000000e+00 0 -1 0
2423 1 2.7428271280707737e+01 5.5654960487060094e+01 0.0000000000000000e+00 3 0 0
318 1 2.9673518205064219e+01 5.5568564113649153e+01 0.0000000000000000e+00 0 -1 0
1780 1 2.9473792525695448e+01 5.6550623889863182e+01 0.0000000000000000e+00 1 0 0
1139 1 2.9919568659708343e+01 5.7415897931203567e+01 0.0000000000000000e+00 0 -1 0
2216 1 3.0583988127616109e+01 5.8101983072440163e+01 0.0000000000000000e+00 1 0 0
853 1 3.1215787170665418e+01 5.8848968389738822e+01 0.0000000000000000e+00 0 0 0
1599 1 1.3632288740959193e+00 6.3181748576186877e+01 0.0000000000000000e+00 1 0 0
2320 1 3.1383193269082490e+00 6.3863425462743500e+01 0.0000000000000000e+00 2 0 0
1072 1 2.3650765497630517e+00 6.3263860480587731e+01 0.0000000000000000e+00 -1 -1 0
228 1 4.0585945743409368e+00 6.4181356623181614e+01 0.0000000000000000e+00 1 -1 0
2459 1 4.4200873791518323e+00 6.5087574083846036e+01 0.0000000000000000e+00 0 1 0
2445 1 4.0220591335729479e+00 6.5999893395024273e+01 0.0000000000000000e+00 2 -1 0
1080 1 3.5640768475151012e+00 6.6860369781684440e+01 0.0000000000000000e+00 2 -1 0
518 1 4.1604957524051578e+00 6.7670596801463788e+01 0.0000000000000000e+00 0 -1 0
2442 1 9.5424139557015142e+00 6.7741253329892544e+01 0.0000000000000000e+00 1 0 0
398 1 1.0513515294607965e+01 6.7725112302006181e+01 0.0000000000000000e+00 -1 1 0
194 1 1.1469613516780521e+01 6.7877672334791768e+01 0.0000000000000000e+00 0 0 0
189 1 4.9582840132902222e+00 6.8243101854426328e+01 0.0000000000000000e+00 -1 0 0
1317 1 5.1473416791804434e+00 6.9205409729265099e+01 0.0000000000000000e+00 1 -1 0
872 1 5.8937686554335178e+00 6.9802599549688580e+01 0.0000000000000000e+00 1 0 0
350 1 6.7247541087571259e+00 7.0315262109336132e+01 0.0000000000000000e+00 1 1 0
1850 1 7.6432865608886775e+00 7.0013524800125325e+01 0.0000000000000000e+00 0 1 0
42 1 8.1550796928750593e+00 6.9107542369246346e+01 0.0000000000000000e+00 0 0 0
2444 1 8.8292889992389405e+00 6.8422720393529801e+01 0.0000000000000000e+00 0 1 0
852 1 1.1949637806849694e+01 6.8750202297801422e+01 0.0000000000000000e+00 0 1 0
482 1 1.2505614688501566e+01 6.9580976033775485e+01 0.0000000000000000e+00 0 0 0
1485 1 1.2562372785509764e+01 7.0553773817294882e+01 0.0000000000000000e+00 0 0 0
15 1 1.2922909786775339e+01 7.1462919802552719e+01 0.0000000000000000e+00 0 0 0
542 1 1.2700345171275195e+01 7.2433009329525206e+01 0.0000000000000000e+00 0 -1 0
882 1 1.3132950454542087e+01 7.3289532791867416e+01 0.0000000000000000e+00 0 1 0
102 1 1.3598516556374610e+01 7.4159794112239823e+01 0.0000000000000000e+00 0 -1 0
756 1 1.3623632132824181e+01 7.5137449691977807e+01 0.0000000000000000e+00 0 1 0
1667 1 1.3392150615918130e+01 7.6112078354335807e+01 0.0000000000000000e+00 0 0 0
1981 1 1.1551170945257578e+01 7.8264939754319315e+01 0.0000000000000000e+00 0 0 0
1203 1 1.0782354573723884e+01 7.9988999804078361e+01 0.0000000000000000e+00 1 0 0
1488 1 1.1183596775735083e+01 8.0875822360672771e+01 0.0000000000000000e+00 0 1 0
1566 1 1.1183584786896297e+01 8.1831780972231343e+01 0.0000000000000000e+00 1 0 0
1012 1 1.0875677347968447e+01 8.2769568256992002e+01 0.0000000000000000e+00 1 0 0
1992 1 1.1256091247920917e+01 8.3688140398902618e+01 0.0000000000000000e+00 1 0 0
1825 1 1.2123068615200578e+01 8.4156925102885808e+01 0.0000000000000000e+00 0 1 0
1944 1 1.3039174395518113e+01 8.4462178468150768e+01 0.0000000000000000e+00 1 1 0
826 1 1.3946046550941565e+01 8.4132735759021955e+01 0.0000000000000000e+00 0 1 0
1947 1 1.4920564117229306e+01 8.4219396612750316e+01 0.0000000000000000e+00 0 1 0
292 1 1.5814774971281940e+01 8.4598084980326405e+01 0.0000000000000000e+00 -1 0 0
1624 1 1.6339051868999984e+01 8.5448605786895797e+01 0.0000000000000000e+00 1 0 0
525 1 2.6730424154540920e+01 8.6214607369711786e+01 0.0000000000000000e+00 1 0 0
1451 1 2.7719550633371639e+01 8.6337066453441068e+01 0.0000000000000000e+00 1 0 0
1612 1 2.8667174727518702e+01 8.6118397665057472e+01 0.0000000000000000e+00 2 1 0
2499 1 2.9464644090115247e+01 8.5552379774829987e+01 0.0000000000000000e+00 1 -1 0
1209 1 3.0402470160488924e+01 8.5844001445617977e+01 0.0000000000000000e+00 1 0 0
1006 1 1.6993300739269856e+01 8.6197945250023210e+01 0.0000000000000000e+00 0 0 0
372 1 1.7958307320117729e+01 8.6043957772899105e+01 0.0000000000000000e+00 0 -1 0
2110 1 1.8962565283690566e+01 8.5935198030484202e+01 0.0000000000000000e+00 0 -1 0
851 1 1.9570314146373970e+01 8.6718866596096802e+01 0.0000000000000000e+00 -1 2 0
388 1 2.4682789862973198e+01 8.8079366937235434e+01 0.0000000000000000e+00 -1 0 0
1658 1 2.5612565830484332e+01 8.7770402861547012e+01 0.0000000000000000e+00 1 -1 0
81 1 2.5991279883869645e+01 8.6870048241376239e+01 0.0000000000000000e+00 -1 0 0
1691 1 3.1048430106683835e+01 8.6615691806110988e+01 0.0000000000000000e+00 1 0 0
2194 1 1.9715775738018859e+01 8.7698682497564562e+01 0.0000000000000000e+00 0 1 0
929 1 2.4005103705207560e+01 8.8804485283518233e+01 0.0000000000000000e+00 0 1 0
1645 1 3.0845359447044412e+01 8.8464525014090384e+01 0.0000000000000000e+00 1 0 0
1272 1 3.0677996407995202e+01 8.7505244027965389e+01 0.0000000000000000e+00 0 0 0
2089 1 1.9470707941777018e+01 8.8663332375930892e+01 0.0000000000000000e+00 1 -1 0
49 1 2.2595294351219167e+01 8.9913236756137124e+01 0.0000000000000000e+00 0 1 0
1084 1 2.3073302429403640e+01 8.9055360519565127e+01 0.0000000000000000e+00 0 0 0
2230 1 3.0163640988269254e+01 8.9177480231129010e+01 0.0000000000000000e+00 1 1 0
169 1 1.9793610428670714e+01 8.9576712723187342e+01 0.0000000000000000e+00 -1 1 0
1511 1 2.0652218986225229e+01 9.0030135297367735e+01 0.0000000000000000e+00 2 -1 0
1837 1 2.1631500127251979e+01 9.0092810192634772e+01 0.0000000000000000e+00 -1 0 0
1138 1 2.9378588952389290e+01 8.9753991465155821e+01 0.0000000000000000e+00 1 1 0
2026 1 2.9433570983561481e+01 9.0756225585048014e+01 0.0000000000000000e+00 0 0 0
2251 1 3.0055071248848911e+01 9.1499380000314218e+01 0.0000000000000000e+00 0 0 0
939 1 3.0766470399668130e+01 9.2161244427026617e+01 0.0000000000000000e+00 -1 2 0
1135 1 3.1497156690197432e+01 9.2808497359933099e+01 0.0000000000000000e+00 1 0 0
988 1 2.5524770170213291e+01 9.8559290487587106e+01 0.0000000000000000e+00 0 1 0
1445 1 2.6515101871478418e+01 9.8637516039713461e+01 0.0000000000000000e+00 -1 0 0
499 1 2.7480467601210915e+01 9.8577086302726499e+01 0.0000000000000000e+00 1 0 0
2244 1 2.8401772624893749e+01 9.8890334592164393e+01 0.0000000000000000e+00 1 -1 0
209 1 2.9136923665569682e+01 9.8239568202691160e+01 0.0000000000000000e+00 0 1 0
1461 1 3.0052183519345242e+01 9.7873200150302594e+01 0.0000000000000000e+00 -1 1 0
2277 1 3.0927726540771989e+01 9.8321288678113689e+01 0.0000000000000000e+00 0 1 0
1377 1 2.4669317018201877e+01 9.9027938187170037e+01 0.0000000000000000e+00 1 0 0
530 1 2.4640441022445813e+01 9.9992798342371159e+01 0.0000000000000000e+00 -1 0 0
307 1 2.8481219291419656e+01 9.9869580549978565e+01 0.0000000000000000e+00 0 0 0
1428 1 2.0788656253277939e+01 1.5721888597770209e+02 0.0000000000000000e+00 1 0 0
2211 1 1.5999637727584444e+01 1.0172963986259504e+02 0.0000000000000000e+00 0 -1 0
1277 1 2.5029047238157908e+01 1.0089309480576077e+02 0.0000000000000000e+00 -1 0 0
936 1 2.8035811966482324e+01 1.0169421329253113e+02 0.0000000000000000e+00 1 1 0
1763 1 2.8599373198113327e+01 1.0087707000717192e+02 0.0000000000000000e+00 -2 -1 0
1955 1 1.9893378006281750e+01 1.5676105379467759e+02 0.0000000000000000e+00 1 0 0
1219 1 7.0030582800976315e+00 1.0152245225250418e+02 0.0000000000000000e+00 1 0 0
184 1 7.9715650126003785e+00 1.0132978150705171e+02 0.0000000000000000e+00 0 0 0
1331 1 8.8484387780217872e+00 1.0173484753605769e+02 0.0000000000000000e+00 0 0 0
884 1 9.7268938378917422e+00 1.0215761775351571e+02 0.0000000000000000e+00 0 0 0
1735 1 1.0605242773825186e+01 1.0259174075881666e+02 0.0000000000000000e+00 0 0 0
966 1 1.2242287592142427e+01 1.0187702875715384e+02 0.0000000000000000e+00 0 -1 0
2126 1 1.1567076716959274e+01 1.0257326223629222e+02 0.0000000000000000e+00 0 -2 0
1644 1 1.3204797429430108e+01 1.0165609974704113e+02 0.0000000000000000e+00 0 0 0
855 1 1.4183604525415769e+01 1.0163402242719489e+02 0.0000000000000000e+00 1 1 0
261 1 1.5071456904273655e+01 1.0203029872080594e+02 0.0000000000000000e+00 0 -1 0
1989 1 1.6995951848086651e+01 1.0156133787324471e+02 0.0000000000000000e+00 1 0 0
1314 1 1.7993576583083591e+01 1.0155903830351426e+02 0.0000000000000000e+00 1 0 0
1886 1 1.8975537854865006e+01 1.0158298052208418e+02 0.0000000000000000e+00 -1 0 0
343 1 1.9920325368412449e+01 1.0187025680913399e+02 0.0000000000000000e+00 0 -1 0
181 1 2.0861904731992531e+01 1.0216393727804571e+02 0.0000000000000000e+00 0 0 0
798 1 2.5278674691738225e+01 1.0183894374134226e+02 0.0000000000000000e+00 2 0 0
1421 1 2.4462285792528625e+01 1.0242788309368473e+02 0.0000000000000000e+00 0 0 0
2118 1 2.6173005901220161e+01 1.0227092257156878e+02 0.0000000000000000e+00 2 -1 0
2021 1 2.7067622977919793e+01 1.0193617705256742e+02 0.0000000000000000e+00 0 -1 0
1333 1 3.1400472771193286e+01 1.0127713561489037e+02 0.0000000000000000e+00 -1 0 0
539 1 5.9104119455579962e+00 1.0313710176369943e+02 0.0000000000000000e+00 0 0 0
349 1 6.4998781997099631e+00 1.0236381898332918e+02 0.0000000000000000e+00 0 1 0
1829 1 2.1822016726613043e+01 1.0230570394833487e+02 0.0000000000000000e+00 0 -1 0
1608 1 2.2636013981288180e+01 1.0282667467535937e+02 0.0000000000000000e+00 0 0 0
271 1 2.3607468839636937e+01 1.0290385748647013e+02 0.0000000000000000e+00 0 0 0
1824 1 3.0896689119792729e+01 1.0211420252897467e+02 0.0000000000000000e+00 0 0 0
650 1 3.0886188391989460e+01 1.0309650698891596e+02 0.0000000000000000e+00 -1 0 0
2153 1 5.1615973891530604e+00 1.0378933436241041e+02 0.0000000000000000e+00 1 0 0
199 1 3.1059887708330606e+01 1.0404158379537293e+02 0.0000000000000000e+00 1 0 0
1819 1 4.3103483405955503e+00 1.0432637027924862e+02 0.0000000000000000e+00 1 0 0
1582 1 3.8959031923459828e+00 1.0614563170045452e+02 0.0000000000000000e+00 1 0 0
2343 1 3.8140224219625734e+00 1.0516498135340112e+02 0.0000000000000000e+00 2 -1 0
1745 1 3.4294814148971997e+00 1.0701055291346299e+02 0.0000000000000000e+00 0 -2 0
822 1 3.4972201481491925e+00 1.0798911351273298e+02 0.0000000000000000e+00 1 0 0
514 1 3.6363320440347318e+00 1.0897703896630166e+02 0.0000000000000000e+00 0 -1 0
912 1 4.2306043515800695e+00 1.0978937531824444e+02 0.0000000000000000e+00 1 1 0
1611 1 4.9524267558107349e+00 1.1046554846420098e+02 0.0000000000000000e+00 1 -1 0
937 1 5.7122470806674945e+00 1.1106893312389589e+02 0.0000000000000000e+00 1 0 0
1633 1 6.6501705319046058e+00 1.1136221717882522e+02 0.0000000000000000e+00 -1 0 0
1741 1 3.8441177654638298e-01 1.1359037978821115e+02 0.0000000000000000e+00 1 -1 0
910 1 1.2796937959298145e+00 1.1322801714272880e+02 0.0000000000000000e+00 0 1 0
550 1 2.1412743515636699e+00 1.1372903043861058e+02 0.0000000000000000e+00 1 0 0
1226 1 6.9855458467071063e+00 1.1229207756422956e+02 0.0000000000000000e+00 1 -1 0
2088 1 3.0722156510878600e+00 1.1344169977278040e+02 0.0000000000000000e+00 1 -2 0
2186 1 4.0562838487024795e+00 1.1352968336496939e+02 0.0000000000000000e+00 1 0 0
1037 1 4.9812423571979112e+00 1.1324442414648428e+02 0.0000000000000000e+00 0 0 0
836 1 6.6970753544954089e+00 1.1321467359487229e+02 0.0000000000000000e+00 1 -1 0
346 1 5.8554615702417383e+00 1.1370308008894976e+02 0.0000000000000000e+00 1 -1 0
2387 1 3.1396286769933504e+01 1.2179351802928760e+02 0.0000000000000000e+00 0 -1 0
897 1 2.6732140520538493e+01 1.2207271544306610e+02 0.0000000000000000e+00 0 0 0
2318 1 2.7632572891590875e+01 1.2178090096466890e+02 0.0000000000000000e+00 0 0 0
2307 1 2.9509136187835090e+01 1.2131123046188691e+02 0.0000000000000000e+00 1 -1 0
1827 1 3.0436997349461802e+01 1.2161106335008233e+02 0.0000000000000000e+00 1 0 0
1255 1 1.6896583203945554e+00 1.2162550499263702e+02 0.0000000000000000e+00 -1 0 0
1083 1 7.7242495262323196e-01 1.2129547430612735e+02 0.0000000000000000e+00 0 -1 0
234 1 2.3611685055868934e+00 1.2233067753032758e+02 0.0000000000000000e+00 1 -2 0
2097 1 1.2795242148236607e+01 1.2330703989545817e+02 0.0000000000000000e+00 0 -1 0
677 1 2.6262101866346793e+01 1.2294749027001460e+02 0.0000000000000000e+00 -1 -1 0
2131 1 2.8606509183767450e+01 1.2175225888784213e+02 0.0000000000000000e+00 -1 -1 0
1341 1 3.1796698608105944e+00 1.2286337081901790e+02 0.0000000000000000e+00 1 0 0
475 1 3.5300683894207543e+00 1.2377458030361747e+02 0.0000000000000000e+00 0 -1 0