LAMMPS data file via write_data, version 15 May 2015, timestep = 2050000

10000 atoms
2 atom types

0.0000000000000000e+00 3.1622776601683796e+02 xlo xhi
0.0000000000000000e+00 3.1622776601683796e+02 ylo yhi
0.0000000000000000e+00 3.1622776601683795e+00 zlo zhi

Masses

1 1

Atoms # atomic

9885 1 6.2993790891068755e+01 1.6666308023875311e+00 0.0000000000000000e+00 1 1 0 
6243 1 1.7861010302723884e+01 7.4462676220637047e-01 0.0000000000000000e+00 1 0 0 
3529 1 6.2925866429811158e+01 4.5151227799640878e+00 0.0000000000000000e+00 0 1 0 
4678 1 2.3111936040457884e+01 7.3356567069685608e-01 0.0000000000000000e+00 1 0 0 
1235 1 3.0073707625711894e+01 1.0585239064835681e+00 0.0000000000000000e+00 0 0 0 
6551 1 3.1047913744899937e+01 8.2388155931751705e-01 0.0000000000000000e+00 1 0 0 
5755 1 3.1762433906324134e+01 7.4137697112475059e-02 0.0000000000000000e+00 0 1 0 
5523 1 6.1551289515248108e+01 7.8565761178394500e-01 0.0000000000000000e+00 0 1 0 
5012 1 6.1975474637671894e+01 1.6822137613552168e+00 0.0000000000000000e+00 0 1 0 
7057 1 1.2651364951426265e+01 6.6560996741681000e-01 0.0000000000000000e+00 1 1 0 
5778 1 1.3479182535736907e+01 1.2093731838564941e+00 0.0000000000000000e+00 0 1 0 
4319 1 1.4219757474522480e+01 1.8384169249487823e+00 0.0000000000000000e+00 0 0 0 
2274 1 1.7382703084820530e+01 1.5987735579332323e+00 0.0000000000000000e+00 0 0 0 
1164 1 2.3929758324718161e+01 1.2870852042912855e+00 0.0000000000000000e+00 0 0 0 
4457 1 2.9796094257788901e+01 2.0431810481815549e+00 0.0000000000000000e+00 1 0 0 
4965 1 6.1521874775847401e+01 2.5572885464266362e+00 0.0000000000000000e+00 0 1 0 
7815 1 2.9498722678287606e+01 2.7005423393783451e-01 0.0000000000000000e+00 1 1 0 
7266 1 6.4260241663455198e-01 3.6464672526813908e+00 0.0000000000000000e+00 1 0 0 
7988 1 1.3723672044125808e+00 4.3020089534045720e+00 0.0000000000000000e+00 1 1 0 
8619 1 2.0776859929892431e+00 5.0091246309074107e+00 0.0000000000000000e+00 1 0 0 
6444 1 1.4671066330758345e+01 2.7226704915293998e+00 0.0000000000000000e+00 0 0 0 
5187 1 1.6134119421793102e+01 4.0472022691554148e+00 0.0000000000000000e+00 0 1 0 
5501 1 1.6592239008132907e+01 3.1759033423787724e+00 0.0000000000000000e+00 0 1 0 
9397 1 1.7389969696208805e+01 2.6057959874542673e+00 0.0000000000000000e+00 1 1 0 
868 1 2.4739821900368927e+01 1.8455446082437075e+00 0.0000000000000000e+00 0 0 0 
4378 1 2.9504709862518933e+01 2.9614869365475718e+00 0.0000000000000000e+00 0 0 0 
4990 1 2.9021239588266301e+01 3.7975058675807749e+00 0.0000000000000000e+00 0 1 0 
1658 1 6.1567902803720067e+01 3.5334347963469224e+00 0.0000000000000000e+00 0 1 0 
386 1 6.1969040779591900e+01 4.4458273734135245e+00 0.0000000000000000e+00 0 0 0 
768 1 2.4306401640320376e+00 5.9310027406407890e+00 0.0000000000000000e+00 0 0 0 
6009 1 1.1709212418624434e+01 4.3931369791443462e+00 0.0000000000000000e+00 0 0 0 
5214 1 1.2582617345297878e+01 3.9397972243169299e+00 0.0000000000000000e+00 0 0 0 
3720 1 1.3553423508723727e+01 4.0044013222402262e+00 0.0000000000000000e+00 0 1 0 
4423 1 1.4500851260969096e+01 3.6831765463565724e+00 0.0000000000000000e+00 0 1 0 
3061 1 1.5187380874435476e+01 4.4147129404297294e+00 0.0000000000000000e+00 0 0 0 
8869 1 2.5535963310765460e+01 2.3872353266011208e+00 0.0000000000000000e+00 1 0 0 
1003 1 2.5586966748488660e+01 3.3849583929719786e+00 0.0000000000000000e+00 0 0 0 
4525 1 2.5632587118776804e+01 4.3555256509460074e+00 0.0000000000000000e+00 0 0 0 
8805 1 2.8188351794789771e+01 4.3139763734454739e+00 0.0000000000000000e+00 1 0 0 
9252 1 3.3968971749739687e+00 6.1215945546376425e+00 0.0000000000000000e+00 1 0 0 
5947 1 4.3459943897404036e+00 5.8187102539612932e+00 0.0000000000000000e+00 1 0 0 
7217 1 5.3157632506363148e+00 5.6384661495292470e+00 0.0000000000000000e+00 1 0 0 
5102 1 9.3540566655305941e+00 5.9953577619676413e+00 0.0000000000000000e+00 0 1 0 
9569 1 1.0004314747504214e+01 5.2276514807491266e+00 0.0000000000000000e+00 0 1 0 
9688 1 1.0972036501190432e+01 5.0340501643143787e+00 0.0000000000000000e+00 1 1 0 
3287 1 1.5041763722481456e+01 6.3850356634190089e+00 0.0000000000000000e+00 0 1 0 
7373 1 1.5055393475080354e+01 5.3893307043683309e+00 0.0000000000000000e+00 0 0 0 
8147 1 2.6353804053364112e+01 5.0031529696775472e+00 0.0000000000000000e+00 1 0 0 
4823 1 2.7309783280600140e+01 4.7412164810295110e+00 0.0000000000000000e+00 0 0 0 
3456 1 6.0520489337590631e+00 6.3508867639837572e+00 0.0000000000000000e+00 0 0 0 
2773 1 8.9766101885485359e+00 6.9479954145248151e+00 0.0000000000000000e+00 0 0 0 
8802 1 1.4672460510033249e+01 7.2666935526998628e+00 0.0000000000000000e+00 0 0 0 
1442 1 5.5140690546015394e+00 7.9755908108015001e+00 0.0000000000000000e+00 0 0 0 
9621 1 6.2807264124191020e+00 7.2996563349435490e+00 0.0000000000000000e+00 1 0 0 
8472 1 7.9942985734283241e+00 7.0705787622152450e+00 0.0000000000000000e+00 0 1 0 
7881 1 7.2256902808075072e+00 7.6722233705956651e+00 0.0000000000000000e+00 0 1 0 
7244 1 9.5972100785240233e+00 7.7185648798613400e+00 0.0000000000000000e+00 0 1 0 
9217 1 1.3197124471382065e+01 8.4970087398548113e+00 0.0000000000000000e+00 1 0 0 
3730 1 1.4077169525575814e+01 8.0495713017399346e+00 0.0000000000000000e+00 1 1 0 
5368 1 1.2637653748807505e+00 9.9223168542436344e+00 0.0000000000000000e+00 0 0 0 
9322 1 4.9885400284788484e-01 9.3146543709098637e+00 0.0000000000000000e+00 1 0 0 
564 1 2.2582232718856292e+00 9.9640674334530956e+00 0.0000000000000000e+00 0 0 0 
5039 1 3.1802120863588388e+00 9.6162347930327368e+00 0.0000000000000000e+00 1 1 0 
7026 1 3.8056097658926102e+00 8.8728651605838227e+00 0.0000000000000000e+00 1 0 0 
8979 1 4.5865941995689017e+00 8.2880394925302898e+00 0.0000000000000000e+00 1 0 0 
822 1 7.4929672521693114e+00 8.6512111378365137e+00 0.0000000000000000e+00 0 0 0 
975 1 9.5185064251247429e+00 8.7102825201596268e+00 0.0000000000000000e+00 0 1 0 
5283 1 9.5549352351194745e+00 9.7143330279144404e+00 0.0000000000000000e+00 0 1 0 
501 1 1.2999019658891553e+01 9.4985215473589584e+00 0.0000000000000000e+00 0 0 0 
3077 1 7.5587060442489973e+00 9.6182019428128260e+00 0.0000000000000000e+00 0 1 0 
2955 1 7.5862324057496204e+00 1.0579281974819130e+01 0.0000000000000000e+00 0 0 0 
5147 1 1.0309907527943915e+01 1.0364751828469217e+01 0.0000000000000000e+00 0 1 0 
6391 1 1.2494894784215468e+01 1.0379306548489373e+01 0.0000000000000000e+00 0 0 0 
1102 1 1.1870549812879100e+01 1.1115412353781478e+01 0.0000000000000000e+00 0 1 0 
2752 1 6.8513208206792653e+00 1.1233544009435780e+01 0.0000000000000000e+00 0 1 0 
9334 1 1.0900474399260160e+01 1.1193151790513575e+01 0.0000000000000000e+00 0 1 0 
2804 1 4.3462277356013059e+00 1.3058353201929409e+01 0.0000000000000000e+00 0 1 0 
1762 1 4.4201502175768130e+00 1.2085123485046513e+01 0.0000000000000000e+00 0 1 0 
2280 1 5.8887022635349933e+00 1.1118384328193677e+01 0.0000000000000000e+00 0 0 0 
3961 1 4.9166408747532797e+00 1.1247265765729288e+01 0.0000000000000000e+00 0 1 0 
8103 1 1.0299209377210511e+01 1.3098452687253355e+01 0.0000000000000000e+00 1 0 0 
7340 1 1.0558607678994250e+01 1.2133290329249952e+01 0.0000000000000000e+00 0 1 0 
9821 1 1.6051741576961806e+01 1.3010918402881158e+01 0.0000000000000000e+00 0 1 0 
4288 1 4.4528595340614539e+00 1.4038743340677005e+01 0.0000000000000000e+00 0 0 0 
4850 1 1.0521480669145589e+01 1.4068805280189068e+01 0.0000000000000000e+00 0 0 0 
3552 1 1.4332016738432577e+01 1.3864578364441748e+01 0.0000000000000000e+00 0 1 0 
841 1 1.5109353568609057e+01 1.3275244105917174e+01 0.0000000000000000e+00 0 0 0 
6114 1 1.6995864530460704e+01 1.3325994348495662e+01 0.0000000000000000e+00 1 0 0 
5473 1 4.9941062650839312e+00 1.4831802712310537e+01 0.0000000000000000e+00 0 1 0 
8362 1 1.0576328210994397e+01 1.5053760253388672e+01 0.0000000000000000e+00 0 0 0 
1682 1 1.3815889612243696e+01 1.4687388262740710e+01 0.0000000000000000e+00 0 1 0 
783 1 1.7380139155668250e+01 1.4243155325742583e+01 0.0000000000000000e+00 0 0 0 
2133 1 1.7596365373983364e+01 1.5225428034974021e+01 0.0000000000000000e+00 0 0 0 
9881 1 3.5148548063112372e+01 1.5011839230866741e+01 0.0000000000000000e+00 1 0 0 
9139 1 3.5710123722677331e+01 1.4217367229181130e+01 0.0000000000000000e+00 1 0 0 
3069 1 3.6703232911094943e+01 1.4138605890591458e+01 0.0000000000000000e+00 0 1 0 
7826 1 4.5860003072890390e+00 1.5720506942988758e+01 0.0000000000000000e+00 0 1 0 
3634 1 1.1347310753111358e+01 1.5677065688427854e+01 0.0000000000000000e+00 0 1 0 
2418 1 1.2273095827598668e+01 1.5435521679829435e+01 0.0000000000000000e+00 1 0 0 
2141 1 1.3271351220561362e+01 1.5497448985611447e+01 0.0000000000000000e+00 0 0 0 
4328 1 1.7988437981022560e+01 1.6136148102777586e+01 0.0000000000000000e+00 0 0 0 
8748 1 3.4615483764444853e+01 1.5833320715553082e+01 0.0000000000000000e+00 1 0 0 
3313 1 3.7412110990352531e+01 1.4800807030992468e+01 0.0000000000000000e+00 0 0 0 
8614 1 4.4400213229618224e+00 1.6693496657656247e+01 0.0000000000000000e+00 1 0 0 
7975 1 3.9517767856319121e+00 1.7529877563914670e+01 0.0000000000000000e+00 1 0 0 
1438 1 1.8038893174619389e+01 1.7125212350040574e+01 0.0000000000000000e+00 0 1 0 
6048 1 3.4643204608633816e+01 1.6820685755640234e+01 0.0000000000000000e+00 1 0 0 
6242 1 3.4503080932130111e+01 1.7797548425589088e+01 0.0000000000000000e+00 1 0 0 
8671 1 3.7335469781222777e+01 1.5762223293874294e+01 0.0000000000000000e+00 1 0 0 
8444 1 4.2643360486131074e+00 1.8462475660934853e+01 0.0000000000000000e+00 0 0 0 
3938 1 1.8770755376759695e+01 1.7797140222782311e+01 0.0000000000000000e+00 0 1 0 
7070 1 3.5261094028034670e+01 1.8420961076940834e+01 0.0000000000000000e+00 1 0 0 
9813 1 3.6243838265580713e+01 1.8391256827615919e+01 0.0000000000000000e+00 1 1 0 
8516 1 3.6845805341770131e+01 1.7626067907585014e+01 0.0000000000000000e+00 1 0 0 
5675 1 3.6959989302450275e+01 1.6661061731247749e+01 0.0000000000000000e+00 1 0 0 
7576 1 4.5846295516706315e+00 1.9375374643721027e+01 0.0000000000000000e+00 0 1 0 
5077 1 5.5140946773815918e+00 1.9901059486320424e+01 0.0000000000000000e+00 0 1 0 
4507 1 1.2451262606588955e+01 1.8851123684822731e+01 0.0000000000000000e+00 1 0 0 
432 1 1.3400933669298695e+01 1.9011050268929068e+01 0.0000000000000000e+00 0 0 0 
8635 1 1.4310311812427400e+01 1.9431687533515198e+01 0.0000000000000000e+00 1 0 0 
9332 1 1.9027335356525956e+01 1.8748088054113062e+01 0.0000000000000000e+00 1 1 0 
70 1 1.8783498014878038e+01 1.9693046437270123e+01 0.0000000000000000e+00 0 0 0 
561 1 5.6568255309238724e+00 2.0891786029245726e+01 0.0000000000000000e+00 0 0 0 
5863 1 1.1787238112428030e+01 1.9564775002721113e+01 0.0000000000000000e+00 0 1 0 
9290 1 1.0891073418057980e+01 2.0013014229443030e+01 0.0000000000000000e+00 1 1 0 
4019 1 1.5266376293692469e+01 1.9187326688761676e+01 0.0000000000000000e+00 0 0 0 
6785 1 1.6114821999629616e+01 1.9633187795184643e+01 0.0000000000000000e+00 0 0 0 
8195 1 1.6917252819495030e+01 2.0206273562433267e+01 0.0000000000000000e+00 0 0 0 
3278 1 1.7882122281872206e+01 2.0033643531512364e+01 0.0000000000000000e+00 0 1 0 
7782 1 1.9520094744416635e+01 2.0353600574700714e+01 0.0000000000000000e+00 1 0 0 
9935 1 1.9914632399787781e+01 2.1264053519599543e+01 0.0000000000000000e+00 1 1 0 
5689 1 6.4040192820805304e+00 2.1524756995348444e+01 0.0000000000000000e+00 0 1 0 
1687 1 7.2734516167782521e+00 2.2005169407014190e+01 0.0000000000000000e+00 0 1 0 
5465 1 1.0528473237092415e+01 2.0951670751825738e+01 0.0000000000000000e+00 0 1 0 
866 1 2.0878200536089906e+01 2.1396050346480379e+01 0.0000000000000000e+00 0 0 0 
1719 1 2.1802959879217383e+01 2.1752056488648446e+01 0.0000000000000000e+00 0 1 0 
6252 1 2.2790270176610377e+01 2.1581817457899636e+01 0.0000000000000000e+00 0 0 0 
3149 1 2.3573453616859947e+01 2.2180094672156152e+01 0.0000000000000000e+00 0 0 0 
2825 1 7.7518763537110296e+00 2.2837003210862594e+01 0.0000000000000000e+00 0 0 0 
4249 1 1.1063527759754864e+01 2.1783151223947868e+01 0.0000000000000000e+00 0 0 0 
7279 1 2.4052816111898402e+01 2.3060739800639809e+01 0.0000000000000000e+00 1 0 0 
2184 1 8.0699748328284162e+00 2.3761944224627747e+01 0.0000000000000000e+00 0 0 0 
6237 1 8.8805058737450917e+00 2.4319143831018224e+01 0.0000000000000000e+00 0 0 0 
5768 1 1.0514515784527402e+01 2.3484718968668886e+01 0.0000000000000000e+00 0 1 0 
6842 1 1.1139731826147589e+01 2.2748307515644996e+01 0.0000000000000000e+00 0 0 0 
1483 1 1.8857707588155119e+01 2.3689558483049755e+01 0.0000000000000000e+00 0 1 0 
3574 1 1.9825852805525283e+01 2.3973997928576196e+01 0.0000000000000000e+00 0 1 0 
232 1 2.0615462027738712e+01 2.4568232723139559e+01 0.0000000000000000e+00 0 0 0 
8035 1 2.4140882898936336e+01 2.4045333583547031e+01 0.0000000000000000e+00 1 -1 0 
6453 1 9.8446940229809492e+00 2.4205409802122432e+01 0.0000000000000000e+00 0 0 0 
8898 1 1.8065008443113300e+01 2.4301083278094129e+01 0.0000000000000000e+00 1 0 0 
5843 1 2.0939866265669561e+01 2.5507954643822938e+01 0.0000000000000000e+00 0 1 0 
2583 1 2.4348411054939231e+01 2.5006478091102036e+01 0.0000000000000000e+00 0 0 0 
8523 1 2.3969609938237806e+01 2.5900972433541828e+01 0.0000000000000000e+00 1 0 0 
6259 1 1.6351612903990880e+01 2.5044398706300544e+01 0.0000000000000000e+00 0 0 0 
7133 1 1.7099271052508094e+01 2.4426431813780095e+01 0.0000000000000000e+00 1 0 0 
8226 1 2.0581068710611714e+01 2.6408516929349062e+01 0.0000000000000000e+00 0 0 0 
1536 1 2.1123137409699694e+01 2.7208731254523084e+01 0.0000000000000000e+00 0 1 0 
3209 1 2.3315848367308295e+01 2.6684118744378736e+01 0.0000000000000000e+00 0 0 0 
154 1 4.1806237930092045e+01 2.6194090014595691e+01 0.0000000000000000e+00 0 0 0 
2586 1 4.0968202811663851e+01 2.6729956891354817e+01 0.0000000000000000e+00 0 0 0 
2529 1 4.2662658737861065e+01 2.5692701511208853e+01 0.0000000000000000e+00 0 1 0 
3127 1 4.3561864798899876e+01 2.6071704444810088e+01 0.0000000000000000e+00 0 0 0 
5747 1 1.1923020745541407e+01 2.8334502510937906e+01 0.0000000000000000e+00 0 1 0 
568 1 1.2895133932106319e+01 2.8251776390508642e+01 0.0000000000000000e+00 0 0 0 
746 1 1.3791884604430221e+01 2.7898758183143027e+01 0.0000000000000000e+00 0 0 0 
8219 1 1.4533641678533311e+01 2.7268455365561024e+01 0.0000000000000000e+00 0 0 0 
2299 1 1.5254967772565386e+01 2.6572249633974440e+01 0.0000000000000000e+00 0 0 0 
7556 1 1.6033233950406292e+01 2.5972181300865230e+01 0.0000000000000000e+00 1 1 0 
5797 1 2.1889000246380686e+01 2.7833390654583738e+01 0.0000000000000000e+00 0 1 0 
611 1 2.2819750971448176e+01 2.7512663210361591e+01 0.0000000000000000e+00 0 0 0 
3131 1 4.0535950111624004e+01 2.7599970883637582e+01 0.0000000000000000e+00 0 1 0 
8181 1 4.4125211544720962e+01 2.6846952838837208e+01 0.0000000000000000e+00 0 0 0 
6616 1 4.4262501330478557e+01 2.7816059812272293e+01 0.0000000000000000e+00 1 0 0 
8229 1 1.0981756721935581e+01 2.8588104497779035e+01 0.0000000000000000e+00 1 0 0 
6287 1 2.1356973615487767e+01 2.9713264283843678e+01 0.0000000000000000e+00 1 0 0 
5916 1 2.1709353554944897e+01 2.8805578001909684e+01 0.0000000000000000e+00 0 0 0 
3822 1 4.0667264276676768e+01 2.8585016137459647e+01 0.0000000000000000e+00 0 1 0 
867 1 4.4211830375098700e+01 2.8796148501115777e+01 0.0000000000000000e+00 0 1 0 
8638 1 9.8749987968901767e+00 2.9974610025879333e+01 0.0000000000000000e+00 1 0 0 
9601 1 1.0752018824464393e+01 2.9537144210385279e+01 0.0000000000000000e+00 1 0 0 
8640 1 2.0415701061705402e+01 3.0060702545077973e+01 0.0000000000000000e+00 0 0 0 
1602 1 4.0008191556828734e+01 3.0157425961763575e+01 0.0000000000000000e+00 0 1 0 
1468 1 4.0825484643576445e+01 2.9566895265170139e+01 0.0000000000000000e+00 0 1 0 
9643 1 4.1752122521407713e+01 2.9901187836562052e+01 0.0000000000000000e+00 1 1 0 
7997 1 4.2682974413730406e+01 2.9638254370061677e+01 0.0000000000000000e+00 0 1 0 
4748 1 4.3693604210540940e+01 2.9677986732949851e+01 0.0000000000000000e+00 0 0 0 
1027 1 9.2250923470554884e+00 3.0710464587043042e+01 0.0000000000000000e+00 0 0 0 
1013 1 1.5473322832345774e+01 3.1317613847759951e+01 0.0000000000000000e+00 0 0 0 
5307 1 1.6385278813892892e+01 3.0894349954914354e+01 0.0000000000000000e+00 0 1 0 
8939 1 1.7826545503395650e+01 3.2134202511239998e+01 0.0000000000000000e+00 1 1 0 
9387 1 1.8800846706464032e+01 3.2071357034136973e+01 0.0000000000000000e+00 1 0 0 
1827 1 1.9740339569975880e+01 3.1898597105343391e+01 0.0000000000000000e+00 0 1 0 
1174 1 2.0123231276191838e+01 3.1022971520084024e+01 0.0000000000000000e+00 0 0 0 
2785 1 3.9360451628649884e+01 3.0899235694928990e+01 0.0000000000000000e+00 0 0 0 
9460 1 4.4085310728082852e+01 3.0583168427506845e+01 0.0000000000000000e+00 1 0 0 
5946 1 4.4410181615825358e+01 3.1507108563882497e+01 0.0000000000000000e+00 0 1 0 
1840 1 5.8960648395897728e+00 3.2812698717307612e+01 0.0000000000000000e+00 1 1 0 
8741 1 5.8855791274574942e+00 3.1806237075425553e+01 0.0000000000000000e+00 1 0 0 
3779 1 6.4571731945516202e+00 3.1010315195186610e+01 0.0000000000000000e+00 1 1 0 
1792 1 7.3287687660596381e+00 3.0584205869160733e+01 0.0000000000000000e+00 0 1 0 
8146 1 8.2909001453458835e+00 3.0896299608486181e+01 0.0000000000000000e+00 1 0 0 
8490 1 1.4831447902549531e+01 3.2060874052119189e+01 0.0000000000000000e+00 1 -1 0 
6246 1 1.7244744719390564e+01 3.1332012943900889e+01 0.0000000000000000e+00 1 0 0 
7763 1 3.7449444008480313e+01 3.1356945072701730e+01 0.0000000000000000e+00 0 1 0 
8232 1 3.8401428769139955e+01 3.1043606962631234e+01 0.0000000000000000e+00 1 0 0 
5859 1 4.4848842656770103e+01 3.2372094606455306e+01 0.0000000000000000e+00 0 1 0 
4027 1 5.8038033693297635e+00 3.3779511411734092e+01 0.0000000000000000e+00 0 0 0 
5927 1 1.1852826962101565e+01 3.3513246943054831e+01 0.0000000000000000e+00 0 1 0 
8761 1 1.2788404098672855e+01 3.3790170377295304e+01 0.0000000000000000e+00 1 0 0 
9477 1 1.3774213829485751e+01 3.3682005382893799e+01 0.0000000000000000e+00 0 1 0 
7435 1 1.4153302571653580e+01 3.2779752414729280e+01 0.0000000000000000e+00 1 0 0 
8884 1 3.5496246797052457e+01 3.3222093170214215e+01 0.0000000000000000e+00 1 0 0 
7936 1 3.6447942363272936e+01 3.3009774429153239e+01 0.0000000000000000e+00 1 1 0 
5135 1 3.6850283260929181e+01 3.2105673859790073e+01 0.0000000000000000e+00 0 1 0 
2425 1 4.5710360288966086e+01 3.2836658976493240e+01 0.0000000000000000e+00 0 0 0 
7222 1 4.5864828751608449e+01 3.3790824044305040e+01 0.0000000000000000e+00 0 1 0 
3782 1 5.5262489553860288e+00 3.4709265050613865e+01 0.0000000000000000e+00 0 0 0 
2581 1 1.0249012959866882e+01 3.4417279092326204e+01 0.0000000000000000e+00 0 0 0 
7105 1 1.0905949879757715e+01 3.3675166663213268e+01 0.0000000000000000e+00 0 0 0 
2521 1 1.4460880330324660e+01 3.4421479267816125e+01 0.0000000000000000e+00 0 0 0 
2458 1 3.4821169093304007e+01 3.3918211800805324e+01 0.0000000000000000e+00 0 0 0 
187 1 4.4598579713033573e+01 3.5138090846907801e+01 0.0000000000000000e+00 0 0 0 
3762 1 4.5456643918980156e+01 3.4691060395196168e+01 0.0000000000000000e+00 0 1 0 
3624 1 5.5656781875308043e+00 3.5696864706988187e+01 0.0000000000000000e+00 0 1 0 
508 1 6.2433927167905914e+00 3.6427600393545305e+01 0.0000000000000000e+00 0 0 0 
5325 1 9.9335586337856139e+00 3.5345995700828162e+01 0.0000000000000000e+00 0 1 0 
7589 1 1.4541147603877759e+01 3.5395903271941684e+01 0.0000000000000000e+00 1 1 0 
7235 1 1.5476921595528689e+01 3.5756843740918470e+01 0.0000000000000000e+00 1 0 0 
3579 1 3.2098572946232792e+01 3.6126509749597155e+01 0.0000000000000000e+00 1 1 0 
8294 1 3.4523709354874086e+01 3.4834789116332672e+01 0.0000000000000000e+00 1 0 0 
4236 1 3.3943357866386727e+01 3.5625573422732231e+01 0.0000000000000000e+00 0 0 0 
6793 1 4.2763346175666982e+01 3.5702546946248091e+01 0.0000000000000000e+00 1 0 0 
5984 1 4.3709170624505155e+01 3.5513609597232346e+01 0.0000000000000000e+00 0 1 0 
4248 1 9.2834522041938872e-01 3.7306470292231957e+01 0.0000000000000000e+00 0 0 0 
2273 1 2.3264313611333748e+01 7.8643219084070907e+01 0.0000000000000000e+00 0 0 0 
9265 1 1.8887140524691586e+00 3.7188602546831582e+01 0.0000000000000000e+00 1 0 0 
8428 1 7.0469924188694053e+00 3.6985484836042005e+01 0.0000000000000000e+00 1 0 0 
3449 1 9.3334053841998070e+00 3.6979821638228927e+01 0.0000000000000000e+00 0 0 0 
6545 1 1.0057756482172135e+01 3.6316902811986331e+01 0.0000000000000000e+00 0 0 0 
488 1 1.0984531640106205e+01 3.6609569664187568e+01 0.0000000000000000e+00 0 0 0 
180 1 1.1918762094934026e+01 3.6307042991935525e+01 0.0000000000000000e+00 -1 0 0 
2365 1 1.3725800639574755e+01 3.5943325014260481e+01 0.0000000000000000e+00 0 0 0 
3895 1 1.2881019063410273e+01 3.6454291791596184e+01 0.0000000000000000e+00 0 1 0 
1014 1 1.6300421426507327e+01 3.6329668760883962e+01 0.0000000000000000e+00 0 1 0 
9551 1 1.7129551847244574e+01 3.6840225906966559e+01 0.0000000000000000e+00 1 0 0 
2081 1 1.8079741432195849e+01 3.7087996073659610e+01 0.0000000000000000e+00 0 0 0 
917 1 2.1638430634675274e+01 3.7103794087714263e+01 0.0000000000000000e+00 0 0 0 
3715 1 2.2620443555007139e+01 3.6964312989518312e+01 0.0000000000000000e+00 0 0 0 
1956 1 2.3527728911333629e+01 3.7256331217403940e+01 0.0000000000000000e+00 0 1 0 
4278 1 2.4236157105787385e+01 3.8015725044797321e+01 0.0000000000000000e+00 0 0 0 
1525 1 2.5186639902055905e+01 3.7827209431289987e+01 0.0000000000000000e+00 0 1 0 
5087 1 2.8537150109645143e+01 3.6472147180321947e+01 0.0000000000000000e+00 0 0 0 
1665 1 2.9208823360071271e+01 3.5746290464153766e+01 0.0000000000000000e+00 0 0 0 
3671 1 3.0216909915402127e+01 3.5692844880671650e+01 0.0000000000000000e+00 0 1 0 
1816 1 3.1192956934767857e+01 3.5757551450951688e+01 0.0000000000000000e+00 0 1 0 
2557 1 3.3086916309716401e+01 3.6085722148168941e+01 0.0000000000000000e+00 0 0 0 
4660 1 3.8457826788293765e+01 3.6806809044040747e+01 0.0000000000000000e+00 0 0 0 
8080 1 3.9333888023919314e+01 3.7271738905142591e+01 0.0000000000000000e+00 0 0 0 
252 1 4.0109464532483059e+01 3.6654619702251075e+01 0.0000000000000000e+00 0 0 0 
884 1 4.1049162444392572e+01 3.6304713010045326e+01 0.0000000000000000e+00 0 0 0 
9806 1 4.1774400837087157e+01 3.5648819672523359e+01 0.0000000000000000e+00 1 1 0 
6188 1 2.8616976184387850e+00 3.7329910579094523e+01 0.0000000000000000e+00 1 0 0 
6700 1 3.5721763057788070e+00 3.8013536578286086e+01 0.0000000000000000e+00 1 0 0 
4294 1 4.5030970797877892e+00 3.8234570151824506e+01 0.0000000000000000e+00 0 0 0 
3575 1 5.3737086275487087e+00 3.8634229983678836e+01 0.0000000000000000e+00 0 0 0 
5165 1 7.6599531286767801e+00 3.7735563306914401e+01 0.0000000000000000e+00 0 1 0 
1808 1 8.6475217650912484e+00 3.7645562861107962e+01 0.0000000000000000e+00 0 1 0 
8234 1 1.9051882368193638e+01 3.7287980131509208e+01 0.0000000000000000e+00 1 0 0 
580 1 1.9756787687456047e+01 3.6608848892002705e+01 0.0000000000000000e+00 0 0 0 
339 1 2.0696384185741422e+01 3.6824552110644106e+01 0.0000000000000000e+00 0 0 0 
1973 1 2.6156831431243315e+01 3.7691538289534734e+01 0.0000000000000000e+00 0 1 0 
7834 1 2.7118983518838188e+01 3.7593587690749885e+01 0.0000000000000000e+00 1 1 0 
2847 1 2.7590643876139694e+01 3.6714025103115752e+01 0.0000000000000000e+00 0 0 0 
4065 1 3.5268164634221357e+01 3.8647330547144016e+01 0.0000000000000000e+00 0 0 0 
1024 1 3.5707638695762277e+01 3.7748050727532146e+01 0.0000000000000000e+00 0 0 0 
7208 1 3.6571979168273820e+01 3.7254951420603732e+01 0.0000000000000000e+00 0 0 0 
1491 1 3.7490505491298073e+01 3.6928176950061648e+01 0.0000000000000000e+00 0 0 0 
3274 1 6.3045684000270477e+00 3.8878735604443435e+01 0.0000000000000000e+00 0 1 0 
9933 1 7.3011212096741653e+00 3.8714691401303021e+01 0.0000000000000000e+00 1 1 0 
4538 1 7.8525258145590771e+00 3.9511334735045999e+01 0.0000000000000000e+00 0 0 0 
1626 1 2.7658185272598107e+01 3.8428332796797342e+01 0.0000000000000000e+00 0 1 0 
824 1 3.4860776456046622e+01 3.9544212159464905e+01 0.0000000000000000e+00 0 0 0 
7724 1 8.6984414196962501e+00 3.9974840572884261e+01 0.0000000000000000e+00 0 1 0 
537 1 2.7865136684863266e+01 3.9397611064575976e+01 0.0000000000000000e+00 0 0 0 
4463 1 2.7916411469120039e+01 4.0389307231515957e+01 0.0000000000000000e+00 0 0 0 
1614 1 3.4664016519308014e+01 4.0497956494832415e+01 0.0000000000000000e+00 0 0 0 
1743 1 9.0668460165890625e+00 4.0902322608345244e+01 0.0000000000000000e+00 0 1 0 
4360 1 9.9278539355825632e+00 4.1376878255372596e+01 0.0000000000000000e+00 1 0 0 
428 1 1.9284193267530000e+01 4.1576232697519856e+01 0.0000000000000000e+00 0 0 0 
5580 1 2.0853102166487467e+01 4.0722448996647692e+01 0.0000000000000000e+00 0 1 0 
8788 1 2.0277334482650630e+01 4.1550225428882825e+01 0.0000000000000000e+00 1 0 0 
8190 1 2.1817976971888431e+01 4.0697773389838552e+01 0.0000000000000000e+00 1 0 0 
7239 1 2.2773627939047127e+01 4.0722049875786759e+01 0.0000000000000000e+00 0 1 0 
9420 1 2.3689145843756766e+01 4.1134114953002332e+01 0.0000000000000000e+00 1 1 0 
3801 1 2.7087308026712648e+01 4.0932491455763355e+01 0.0000000000000000e+00 0 1 0 
6919 1 2.6183127041206362e+01 4.1307846517002488e+01 0.0000000000000000e+00 1 0 0 
8687 1 2.8872798752109002e+01 4.0746362963689592e+01 0.0000000000000000e+00 1 0 0 
3137 1 2.9724007329115139e+01 4.1215959196374605e+01 0.0000000000000000e+00 0 1 0 
5636 1 3.0678513269319573e+01 4.1392941094450819e+01 0.0000000000000000e+00 0 1 0 
2625 1 3.1616947950937629e+01 4.1116604500038278e+01 0.0000000000000000e+00 0 1 0 
8533 1 3.2297985169984742e+01 4.1834319928950833e+01 0.0000000000000000e+00 0 0 0 
2677 1 3.3263631138090012e+01 4.1766127965828211e+01 0.0000000000000000e+00 0 0 0 
871 1 3.3785789248077535e+01 4.0913700541558917e+01 0.0000000000000000e+00 0 0 0 
4121 1 9.9260728345641276e+00 4.2366845909678716e+01 0.0000000000000000e+00 0 0 0 
2767 1 1.0411070153803820e+01 4.3226825332766929e+01 0.0000000000000000e+00 1 0 0 
4020 1 1.8326746821453096e+01 4.1850133669395532e+01 0.0000000000000000e+00 0 0 0 
592 1 1.7603530209766561e+01 4.2506283908264429e+01 0.0000000000000000e+00 0 0 0 
2335 1 2.0773581139572322e+01 4.2411685742906741e+01 0.0000000000000000e+00 0 0 0 
8767 1 2.4493148661231622e+01 4.1677784324719148e+01 0.0000000000000000e+00 1 0 0 
6409 1 2.5446509468982320e+01 4.1965038984663693e+01 0.0000000000000000e+00 1 0 0 
3007 1 1.1387241903357117e+01 4.3358778707418317e+01 0.0000000000000000e+00 0 1 0 
1824 1 1.2358896435439878e+01 4.3300747190332103e+01 0.0000000000000000e+00 0 1 0 
2177 1 1.3227757638777097e+01 4.2864584790804294e+01 0.0000000000000000e+00 0 0 0 
7249 1 1.4126013946562145e+01 4.2485731104567684e+01 0.0000000000000000e+00 0 1 0 
3725 1 1.5111830008533779e+01 4.2652429280577294e+01 0.0000000000000000e+00 0 1 0 
4253 1 1.5987986314754192e+01 4.3097255185586413e+01 0.0000000000000000e+00 1 0 0 
6191 1 1.6957518152628616e+01 4.3265884684806331e+01 0.0000000000000000e+00 0 1 0 
6972 1 2.0437425205182304e+01 4.3319072053359356e+01 0.0000000000000000e+00 0 0 0 
4919 1 2.5631016846647995e+01 4.2946997310962843e+01 0.0000000000000000e+00 1 0 0 
5181 1 1.7439328125524444e+01 4.4180806413502303e+01 0.0000000000000000e+00 0 0 0 
2193 1 1.8225525664065803e+01 4.4773980661866815e+01 0.0000000000000000e+00 0 0 0 
5462 1 1.9203129548597079e+01 4.4620287384775445e+01 0.0000000000000000e+00 0 1 0 
918 1 2.0081067872405228e+01 4.4197139943623981e+01 0.0000000000000000e+00 0 1 0 
1999 1 2.5168161475207679e+01 4.4777165792400275e+01 0.0000000000000000e+00 -1 1 0 
4943 1 2.5626927126524560e+01 4.3926331305393838e+01 0.0000000000000000e+00 0 0 0 
1039 1 2.4554507891466862e+01 4.6639414590356282e+01 0.0000000000000000e+00 0 0 0 
7259 1 2.4938474056317453e+01 4.5734815481309063e+01 0.0000000000000000e+00 1 0 0 
5197 1 2.4052027563349544e+01 4.7491181987810840e+01 0.0000000000000000e+00 0 1 0 
3829 1 1.3394687472958722e+00 4.8443585482410029e+01 0.0000000000000000e+00 1 0 0 
1540 1 2.2911541178396022e+00 4.8704077186522582e+01 0.0000000000000000e+00 0 0 0 
6619 1 2.3742121589544773e+01 4.8422207978309189e+01 0.0000000000000000e+00 1 0 0 
4224 1 3.3088811164287518e-01 4.8491913992109204e+01 0.0000000000000000e+00 0 0 0 
3907 1 2.8159938041132473e+00 4.9517263418953334e+01 0.0000000000000000e+00 1 1 0 
6659 1 3.4385195235461024e+00 5.0280062056859435e+01 0.0000000000000000e+00 0 -1 0 
1631 1 2.3163381553621118e+01 4.9254448427764480e+01 0.0000000000000000e+00 0 1 0 
2722 1 2.2561114815558334e+01 5.0103036661469346e+01 0.0000000000000000e+00 0 0 0 
5960 1 3.8169698823455751e+00 5.1172563236680503e+01 0.0000000000000000e+00 0 1 0 
2617 1 2.2648333225905631e+01 5.1073130004332285e+01 0.0000000000000000e+00 0 0 0 
7247 1 3.7130448251325645e+00 5.2158041329172235e+01 0.0000000000000000e+00 0 1 0 
9049 1 2.2642206789423089e+01 5.2060143570027535e+01 0.0000000000000000e+00 0 1 0 
2850 1 2.2342746570548373e+00 5.3439378658343074e+01 0.0000000000000000e+00 0 0 0 
7440 1 2.9749259042293419e+00 5.2792700324777805e+01 0.0000000000000000e+00 0 1 0 
3968 1 2.2470489947879443e+01 5.3025488571168687e+01 0.0000000000000000e+00 0 1 0 
7198 1 6.0837491019824888e+01 5.3022660429158954e+01 0.0000000000000000e+00 1 0 0 
761 1 6.1796294473847354e+01 5.2926252336737939e+01 0.0000000000000000e+00 0 0 0 
3618 1 6.2556387429992675e+01 5.3524477816465478e+01 0.0000000000000000e+00 1 1 0 
6617 1 5.6651068859365739e-01 5.4068110605063190e+01 0.0000000000000000e+00 1 0 0 
396 1 1.5438692842994839e+00 5.4171045143007021e+01 0.0000000000000000e+00 0 0 0 
3224 1 2.2136321315745409e+01 5.3943346183108616e+01 0.0000000000000000e+00 0 0 0 
4145 1 2.2195996270582675e+01 5.4901721079906665e+01 0.0000000000000000e+00 0 0 0 
8136 1 5.9230154039396531e+01 5.4077162231538992e+01 0.0000000000000000e+00 1 0 0 
1305 1 5.9957898112482894e+01 5.3443591485413236e+01 0.0000000000000000e+00 1 0 0 
8752 1 6.3076355760464544e+01 5.4370178800075436e+01 0.0000000000000000e+00 1 0 0 
8630 1 1.8427558012268639e+00 5.5114539908237113e+01 0.0000000000000000e+00 1 0 0 
5593 1 2.2736049040343037e+01 5.5693510086866830e+01 0.0000000000000000e+00 0 0 0 
7802 1 5.8516754589912246e+01 5.4752135807974668e+01 0.0000000000000000e+00 1 1 0 
6139 1 6.2792647884707371e+01 5.5340828064397456e+01 0.0000000000000000e+00 1 0 0 