LAMMPS data file via write_data, version 15 May 2015, timestep = 2050000

2500 atoms
2 atom types

0.0000000000000000e+00 7.9056941504209490e+01 xlo xhi
0.0000000000000000e+00 7.9056941504209490e+01 ylo yhi
0.0000000000000000e+00 1.5811388300841898e+00 zlo zhi

Masses

1 1

Atoms # atomic

20 1 4.0889723935833464e+00 1.4940600433488302e-01 0.0000000000000000e+00 0 -1 0 
712 1 4.4595164822696329e+00 1.0365096557648246e+00 0.0000000000000000e+00 1 -1 0 
1231 1 7.1784568706967704e+00 8.6604303403205585e-01 0.0000000000000000e+00 0 0 0 
1153 1 9.0067859615028247e+00 1.0922571837721533e+00 0.0000000000000000e+00 0 0 0 
241 1 1.0577651509653228e+01 4.1638681415651080e-01 0.0000000000000000e+00 0 1 0 
634 1 1.1554164882360919e+01 4.9728226689959409e-01 0.0000000000000000e+00 0 -1 0 
1019 1 1.5412029356312916e+01 3.9219054581487342e+01 0.0000000000000000e+00 0 0 0 
267 1 1.3218603190699124e+01 7.5686938909276691e-01 0.0000000000000000e+00 0 -1 0 
433 1 1.4102939649526858e+01 1.2116454474917138e+00 0.0000000000000000e+00 0 1 0 
1728 1 1.2460572903291617e+01 1.3052447031216319e-01 0.0000000000000000e+00 0 1 0 
913 1 4.2281644966964178e+00 1.9994700816250992e+00 0.0000000000000000e+00 1 -1 0 
630 1 5.8949995675155149e+00 2.3496902140376639e+00 0.0000000000000000e+00 -1 0 0 
1858 1 7.5285020975042016e+00 1.7702677824718036e+00 0.0000000000000000e+00 0 0 0 
72 1 8.4813659246413149e+00 1.9588776769687497e+00 0.0000000000000000e+00 0 -1 0 
1709 1 9.9723060895461302e+00 1.1796725982094534e+00 0.0000000000000000e+00 0 1 0 
601 1 1.0363576451507038e+01 2.1074921143334895e+00 0.0000000000000000e+00 -1 -1 0 
351 1 1.5047444599855352e+01 1.4946722451334369e+00 0.0000000000000000e+00 0 1 0 
1799 1 1.5082620202676768e+01 2.4957617661872793e+00 0.0000000000000000e+00 1 1 0 
1752 1 2.8041388090261470e+00 3.2394800180371455e+00 0.0000000000000000e+00 0 0 0 
1707 1 3.3453593306725611e+00 2.3921693480395922e+00 0.0000000000000000e+00 1 0 0 
769 1 4.9513310807519693e+00 2.6694166426520143e+00 0.0000000000000000e+00 1 0 0 
1226 1 6.8469565871023725e+00 2.4691518628717235e+00 0.0000000000000000e+00 0 1 0 
550 1 7.2618491914062897e+00 3.3827012656442128e+00 0.0000000000000000e+00 1 0 0 
1934 1 8.2333902781741486e+00 3.5652122393151191e+00 0.0000000000000000e+00 2 1 0 
754 1 8.8942625114574394e+00 2.8402731473880043e+00 0.0000000000000000e+00 0 0 0 
1534 1 9.8619592480114378e+00 2.9486551457706476e+00 0.0000000000000000e+00 1 0 0 
1290 1 8.5041164846346662e-02 3.6689353817102244e+01 0.0000000000000000e+00 1 1 0 
1183 1 1.1750319526865214e+00 3.6226029970714646e+00 0.0000000000000000e+00 0 1 0 
138 1 5.1320179816009193e-01 4.3693289223384948e+00 0.0000000000000000e+00 0 -1 0 
334 1 2.0871563486568712e+00 3.9453164484508627e+00 0.0000000000000000e+00 0 1 0 
2267 1 4.0463244658208106e+00 4.2614056754607610e+00 0.0000000000000000e+00 1 -1 0 
1467 1 4.8702674236812067e+00 3.6635348812408397e+00 0.0000000000000000e+00 1 1 0 
55 1 5.6536270214176776e+00 4.2509123622514595e+00 0.0000000000000000e+00 1 0 0 
1178 1 6.6198008120562672e+00 4.1324768587473226e+00 0.0000000000000000e+00 0 0 0 
1288 1 8.4989777301893952e+00 4.5090824398513139e+00 0.0000000000000000e+00 1 0 0 
1574 1 1.0435423386596149e+01 3.7567472076275048e+00 0.0000000000000000e+00 0 0 0 
631 1 1.1438298578841135e+01 3.6707955997000727e+00 0.0000000000000000e+00 -1 1 0 
1338 1 1.2437937888184193e+01 3.7828165823898265e+00 0.0000000000000000e+00 0 0 0 
1274 1 1.4006566932005910e+01 4.4951570176095590e+00 0.0000000000000000e+00 0 2 0 
2428 1 1.5663304009341445e+01 4.0280448723766851e+00 0.0000000000000000e+00 1 0 0 
7 1 7.2460929976989275e-01 5.3567767596592715e+00 0.0000000000000000e+00 0 -1 0 
2270 1 2.4129156434425294e+00 4.8841544240110562e+00 0.0000000000000000e+00 0 0 0 
468 1 1.7133757825254787e+00 5.5662853924119071e+00 0.0000000000000000e+00 0 1 0 
1333 1 3.3892731922761645e+00 4.9959746487211278e+00 0.0000000000000000e+00 1 1 0 
1266 1 3.7263279314144806e+00 5.9114419203562312e+00 0.0000000000000000e+00 0 0 0 
173 1 9.2990367485945260e+00 5.0726579009172879e+00 0.0000000000000000e+00 -1 1 0 
1803 1 1.0222031487285014e+01 4.7222161730670660e+00 0.0000000000000000e+00 0 0 0 
650 1 1.2999709107505602e+01 4.5754415050196799e+00 0.0000000000000000e+00 0 1 0 
2126 1 1.2604175051445619e+01 5.4749364789493411e+00 0.0000000000000000e+00 1 0 0 
1814 1 1.4955045420633507e+01 4.7420961767363563e+00 0.0000000000000000e+00 1 1 0 
831 1 1.5132170693335478e+01 5.7263439504074025e+00 0.0000000000000000e+00 0 1 0 
1197 1 1.7238621216948324e+00 6.5442057111183098e+00 0.0000000000000000e+00 0 0 0 
2408 1 3.9534705437965965e+00 6.8652344867516417e+00 0.0000000000000000e+00 1 0 0 
1102 1 4.8394628287050052e+00 7.3114952087079699e+00 0.0000000000000000e+00 0 0 0 
910 1 6.7770004281348353e+00 7.1020146568884126e+00 0.0000000000000000e+00 1 1 0 
471 1 9.2483159758092981e+00 6.0527113310166474e+00 0.0000000000000000e+00 0 0 0 
1424 1 1.2767548161552943e+01 6.4350902724577068e+00 0.0000000000000000e+00 0 1 0 
486 1 1.4352845501544680e+01 6.3569205128757114e+00 0.0000000000000000e+00 1 2 0 
981 1 2.2783656194799895e+00 7.3439014332950387e+00 0.0000000000000000e+00 0 0 0 
526 1 3.2413954829626408e+00 7.5872209611720676e+00 0.0000000000000000e+00 0 0 0 
1881 1 5.8177848339212588e+00 7.3077115118368017e+00 0.0000000000000000e+00 1 1 0 
1894 1 7.5836297394909415e+00 6.5258241370710248e+00 0.0000000000000000e+00 1 1 0 
1853 1 8.5265053491240810e+00 6.7153010586821340e+00 0.0000000000000000e+00 1 1 0 
1312 1 8.8386805615829136e+00 7.6388345037188614e+00 0.0000000000000000e+00 0 1 0 
385 1 1.1909721012526406e+01 6.9148787353406567e+00 0.0000000000000000e+00 0 1 0 
1488 1 1.1100530511394997e+01 7.4544293355294569e+00 0.0000000000000000e+00 1 1 0 
635 1 1.3572533740343912e+01 6.9706934934054647e+00 0.0000000000000000e+00 0 -1 0 
1332 1 1.3570438534012156e+01 7.9463648712408528e+00 0.0000000000000000e+00 0 1 0 
517 1 1.5401239903041294e+01 7.6855672101278172e+00 0.0000000000000000e+00 0 0 0 
2430 1 3.4496530284248039e+00 8.5291229952439647e+00 0.0000000000000000e+00 0 1 0 
2398 1 3.0801643171911675e+00 9.4233006186490389e+00 0.0000000000000000e+00 1 0 0 
1769 1 9.0930133189890583e+00 8.5745647080357408e+00 0.0000000000000000e+00 1 1 0 
1251 1 1.0053693056067170e+01 8.8418387181259259e+00 0.0000000000000000e+00 1 1 0 
369 1 1.0983017257062452e+01 8.4313916160176721e+00 0.0000000000000000e+00 0 1 0 
911 1 1.1850739215336013e+01 8.8761788589329207e+00 0.0000000000000000e+00 0 0 0 
1245 1 1.2735240836056638e+01 8.4775980165955573e+00 0.0000000000000000e+00 1 1 0 
766 1 1.4565551431402985e+01 8.2092205082802323e+00 0.0000000000000000e+00 0 1 0 
514 1 1.4738619334487181e+01 9.1723501052531518e+00 0.0000000000000000e+00 1 -1 0 
860 1 2.3732963437249719e+00 1.0109673021512485e+01 0.0000000000000000e+00 1 1 0 
1350 1 1.0131011037286287e+01 9.8112003928600711e+00 0.0000000000000000e+00 0 0 0 
1673 1 1.1828624423949634e+01 9.8333667166368937e+00 0.0000000000000000e+00 1 0 0 
2207 1 1.5353300317932025e+01 9.9398841439815939e+00 0.0000000000000000e+00 1 0 0 
1705 1 6.5208216543473230e-01 1.0731725146628630e+01 0.0000000000000000e+00 1 0 0 
1434 1 1.3661204807592782e+00 1.0077128323430177e+01 0.0000000000000000e+00 0 1 0 
1538 1 1.0973604658342797e+01 1.0270764400662690e+01 0.0000000000000000e+00 1 -1 0 
882 1 1.4971371849056286e+01 1.0859459340200779e+01 0.0000000000000000e+00 0 1 0 
484 1 1.1157667569173839e+01 1.2240340762925513e+01 0.0000000000000000e+00 0 1 0 
442 1 1.0998450351886571e+01 1.1269030452894347e+01 0.0000000000000000e+00 0 1 0 
90 1 1.4378404557575156e+01 1.2418047711329095e+01 0.0000000000000000e+00 1 1 0 
1212 1 1.5156156219053365e+01 1.1834225135898532e+01 0.0000000000000000e+00 0 0 0 
2495 1 1.0774071333507530e+01 1.3140956721989538e+01 0.0000000000000000e+00 1 0 0 
576 1 1.4229596681505598e+01 1.3412242912553326e+01 0.0000000000000000e+00 1 0 0 
1342 1 1.0849298848097026e+01 1.4108933276484608e+01 0.0000000000000000e+00 1 1 0 
664 1 1.1705417286934164e+01 1.4613634800831095e+01 0.0000000000000000e+00 0 0 0 
1739 1 1.2496786238442921e+01 1.4057240591912882e+01 0.0000000000000000e+00 1 0 0 
2145 1 1.3475330957084342e+01 1.4091744145615277e+01 0.0000000000000000e+00 -1 -1 0 
2247 1 1.1900234915798203e+01 1.5590601360004726e+01 0.0000000000000000e+00 1 0 0 
1137 1 1.3831025918379217e+01 1.5004601754468842e+01 0.0000000000000000e+00 1 0 0 
1321 1 1.3694864736697093e+01 1.5974361074235887e+01 0.0000000000000000e+00 0 1 0 
1337 1 1.2731838748681040e+01 1.6107759762061772e+01 0.0000000000000000e+00 1 0 0 
1034 1 1.4452281592327289e+01 1.6618086891234121e+01 0.0000000000000000e+00 1 -1 0 
578 1 1.5365711668866441e+01 1.6292398192216833e+01 0.0000000000000000e+00 0 0 0 
2380 1 4.8477894019536132e+00 1.8409459914649812e+01 0.0000000000000000e+00 0 2 0 
1573 1 5.6796979182193654e+00 1.7856385750876068e+01 0.0000000000000000e+00 1 0 0 
133 1 6.5674913684560234e+00 1.8307476695440457e+01 0.0000000000000000e+00 -1 1 0 
2372 1 1.4156486727656052e+01 1.7561961918848176e+01 0.0000000000000000e+00 0 0 0 
2014 1 1.4563543440095316e+01 1.8439452235491657e+01 0.0000000000000000e+00 1 -1 0 
1901 1 4.9380105598254058e+00 1.9371807792249989e+01 0.0000000000000000e+00 1 1 0 
826 1 6.7568093061447243e+00 1.9269470364944112e+01 0.0000000000000000e+00 0 1 0 
697 1 1.5408460304331784e+01 1.8954603551642816e+01 0.0000000000000000e+00 0 -1 0 
2357 1 1.6097869535886871e+00 2.0511520977137611e+01 0.0000000000000000e+00 2 0 0 
742 1 2.4526189668369782e+00 2.0051830867015678e+01 0.0000000000000000e+00 1 0 0 
1767 1 3.3222660445848207e+00 2.0459743818285514e+01 0.0000000000000000e+00 1 1 0 
844 1 5.0093770547468175e+00 2.0340070822826892e+01 0.0000000000000000e+00 1 1 0 
1097 1 5.9468206725597490e+00 2.0635727503657918e+01 0.0000000000000000e+00 1 0 0 
1848 1 6.8529672207706263e+00 2.0242701193852326e+01 0.0000000000000000e+00 0 1 0 
2459 1 7.7273953341736670e+00 2.0733071336375342e+01 0.0000000000000000e+00 1 -1 0 
1043 1 1.2510408245656461e+00 2.1458136935248426e+01 0.0000000000000000e+00 0 -2 0 
79 1 4.2252336646836133e+00 2.0935872411959256e+01 0.0000000000000000e+00 1 0 0 
2194 1 4.3352250488479900e+00 2.1893654178297481e+01 0.0000000000000000e+00 0 -1 0 
859 1 6.0650728762510679e+00 2.1620207645459207e+01 0.0000000000000000e+00 1 1 0 
1113 1 8.6802743782001066e+00 2.0972534995535270e+01 0.0000000000000000e+00 0 0 0 
1047 1 9.5718379083889022e+00 2.1357820328167541e+01 0.0000000000000000e+00 0 0 0 
274 1 1.0511509185493640e+01 2.1091400847198003e+01 0.0000000000000000e+00 0 0 0 
721 1 1.1147523671547432e+01 2.1827389097168126e+01 0.0000000000000000e+00 0 0 0 
808 1 1.2120575645432224e+01 2.1665742710641542e+01 0.0000000000000000e+00 0 0 0 
1227 1 1.3017120962101973e+01 2.2067899972142293e+01 0.0000000000000000e+00 0 0 0 
2068 1 1.5151375942099261e+00 2.3219769792109496e+01 0.0000000000000000e+00 2 0 0 
552 1 1.8342048273587408e+00 2.2288057257394836e+01 0.0000000000000000e+00 0 -1 0 
1614 1 2.7767783816098435e+00 2.2047236739349717e+01 0.0000000000000000e+00 0 -1 0 
2146 1 3.6135425722492718e+00 2.2561190513140474e+01 0.0000000000000000e+00 1 0 0 
2094 1 5.2469961428306435e+00 2.2192933090989275e+01 0.0000000000000000e+00 0 -1 0 
1825 1 5.4257667023589535e+00 2.3161081509475864e+01 0.0000000000000000e+00 1 1 0 
276 1 1.3736882299782710e+01 2.2753917244210626e+01 0.0000000000000000e+00 1 0 0 
1549 1 1.4724494213548427e+01 2.2681170596597553e+01 0.0000000000000000e+00 2 -1 0 
257 1 2.0860085397721759e+00 2.4032565152344727e+01 0.0000000000000000e+00 0 0 0 
2082 1 3.7331859498636195e+00 2.3523605611392981e+01 0.0000000000000000e+00 0 0 0 
773 1 3.0441843944043510e+00 2.4226023512030356e+01 0.0000000000000000e+00 0 0 0 
1720 1 4.6804521069479259e+00 2.3821149330163419e+01 0.0000000000000000e+00 0 -1 0 
42 1 3.2638253681645790e+00 2.5182416751954154e+01 0.0000000000000000e+00 1 0 0 
1140 1 4.9762426738755625e+00 2.4766271677747529e+01 0.0000000000000000e+00 0 0 0 
1847 1 5.1909459448115243e+00 2.5715098424317834e+01 0.0000000000000000e+00 1 1 0 
1512 1 3.0389038504206023e+00 2.6124885780206842e+01 0.0000000000000000e+00 0 0 0 
1613 1 4.6078321973032814e+00 2.6517886651746490e+01 0.0000000000000000e+00 1 0 0 
865 1 3.6899335180197674e+00 2.6854440014171875e+01 0.0000000000000000e+00 0 1 0 
743 1 3.6763352500455699e+00 2.7838202040282169e+01 0.0000000000000000e+00 1 0 0 
1444 1 3.8996762497754891e+00 2.8792674160127614e+01 0.0000000000000000e+00 1 1 0 
1594 1 1.5730329842618787e+01 2.8827494255186799e+01 0.0000000000000000e+00 1 -1 0 
783 1 2.3172326130964915e+00 2.9960251099273925e+01 0.0000000000000000e+00 0 -1 0 
1963 1 3.1037807286375587e+00 2.9370518243957672e+01 0.0000000000000000e+00 1 1 0 
2262 1 4.8705525472681845e+00 2.8982652154334346e+01 0.0000000000000000e+00 1 1 0 
1743 1 5.6643009839356440e+00 2.9535085342273018e+01 0.0000000000000000e+00 0 0 0 
1650 1 6.6055448869507067e+00 2.9266521848208011e+01 0.0000000000000000e+00 1 0 0 
1200 1 7.5638856249699291e+00 2.9454451208721924e+01 0.0000000000000000e+00 1 0 0 
958 1 6.3583537436637902e+00 3.3057595196893430e-01 0.0000000000000000e+00 0 1 0 
2286 1 2.0947177082849660e+00 3.0942534205888467e+01 0.0000000000000000e+00 2 0 0 
219 1 5.4345756393668383e+00 3.0505708363494463e+01 0.0000000000000000e+00 1 0 0 
143 1 7.7857777713728966e+00 3.0416033519879363e+01 0.0000000000000000e+00 0 0 0 
1612 1 1.4325650296774461e+01 3.1042156499633467e+01 0.0000000000000000e+00 0 0 0 
1250 1 1.4912351552934638e+01 3.0204736624050707e+01 0.0000000000000000e+00 0 -1 0 
1049 1 2.8908651719666856e+00 3.1502670435415194e+01 0.0000000000000000e+00 0 0 0 
752 1 3.5365792385967176e+00 3.2234846959258583e+01 0.0000000000000000e+00 0 0 0 
1524 1 4.4693803587164807e+00 3.1866326116797257e+01 0.0000000000000000e+00 0 0 0 
2257 1 5.3608894505507489e+00 3.1484570216701425e+01 0.0000000000000000e+00 1 0 0 
1517 1 6.0291125264878982e+00 3.2198141566731394e+01 0.0000000000000000e+00 1 0 0 
1354 1 6.9691108641995267e+00 3.1897739303313042e+01 0.0000000000000000e+00 0 1 0 
1445 1 7.8107387395450107e+00 3.1416463116758706e+01 0.0000000000000000e+00 1 0 0 
1715 1 8.6523354314031771e+00 3.1927878727739241e+01 0.0000000000000000e+00 0 0 0 
784 1 1.2859288221849146e+01 3.2310143170808246e+01 0.0000000000000000e+00 -1 0 0 
1930 1 1.3674268307151802e+01 3.1777825238937190e+01 0.0000000000000000e+00 0 1 0 
627 1 4.7562162518979750e-01 3.3519582943792251e+01 0.0000000000000000e+00 0 1 0 
670 1 2.2935504622178211e+00 3.3228402657858851e+01 0.0000000000000000e+00 0 -1 0 
537 1 3.2875004413013085e+00 3.3190292908584944e+01 0.0000000000000000e+00 1 0 0 
210 1 4.9426042800733700e+00 3.3425393080676542e+01 0.0000000000000000e+00 1 0 0 
825 1 5.8805827247333058e+00 3.3157187874886880e+01 0.0000000000000000e+00 -1 0 0 
226 1 9.1037512988605673e+00 3.2803197739314889e+01 0.0000000000000000e+00 -1 0 0 
1482 1 9.6260081971263318e+00 3.3673220481678385e+01 0.0000000000000000e+00 0 1 0 
198 1 1.0603495274091019e+01 3.3736514631451016e+01 0.0000000000000000e+00 1 -1 0 
2298 1 1.1129866581817838e+01 3.2939159726621945e+01 0.0000000000000000e+00 1 1 0 
174 1 1.2121919612422051e+01 3.2996137099697378e+01 0.0000000000000000e+00 0 0 0 
927 1 1.2557382092314336e+01 3.3916470239844465e+01 0.0000000000000000e+00 0 1 0 
6 1 1.4283895994015829e+00 3.3732624539201353e+01 0.0000000000000000e+00 -1 -1 0 
11 1 4.0384351201355342e+00 3.3841116693126530e+01 0.0000000000000000e+00 0 -1 0 
1398 1 6.6445951026734624e+00 3.3802084238144317e+01 0.0000000000000000e+00 1 0 0 
2431 1 6.5960246799404629e+00 3.4774667552832611e+01 0.0000000000000000e+00 0 0 0 
527 1 8.9385074308577455e+00 3.4387083430889533e+01 0.0000000000000000e+00 1 0 0 
309 1 1.1005460520594664e+01 3.4643145567964744e+01 0.0000000000000000e+00 -1 1 0 
628 1 1.2019020932924784e+01 3.4740013255186049e+01 0.0000000000000000e+00 0 -1 0 
1575 1 1.3546927016019621e+01 3.4082799525866129e+01 0.0000000000000000e+00 0 -1 0 
600 1 1.3955985700163968e+01 3.4974908377507468e+01 0.0000000000000000e+00 0 -1 0 
1700 1 1.5785112055711034e+01 3.4476916518920206e+01 0.0000000000000000e+00 1 -1 0 
63 1 1.4923556555816367e+01 3.4950651418787849e+01 0.0000000000000000e+00 0 0 0 
1554 1 1.3535713383684684e+00 3.5654902793169292e+01 0.0000000000000000e+00 1 -1 0 
574 1 3.8104056527321506e-01 3.5760584658755810e+01 0.0000000000000000e+00 0 0 0 
729 1 1.5637965316035967e+00 3.4703563881349751e+01 0.0000000000000000e+00 1 0 0 
2086 1 3.1140915612962110e+00 3.5151012433747866e+01 0.0000000000000000e+00 1 0 0 
91 1 4.0266503162520690e+00 3.4825029288495728e+01 0.0000000000000000e+00 -2 -1 0 
736 1 4.7699384942576168e+00 3.5477952240159375e+01 0.0000000000000000e+00 0 -1 0 
1 1 5.6972023484684939e+00 3.5176921088900677e+01 0.0000000000000000e+00 0 -2 0 
135 1 7.3471072563692497e+00 3.5424734395348032e+01 0.0000000000000000e+00 0 -1 0 
1596 1 8.2391758339429462e+00 3.5061446398629272e+01 0.0000000000000000e+00 2 0 0 
840 1 1.0500691919142655e+01 3.5506681872636761e+01 0.0000000000000000e+00 0 1 0 
1189 1 1.2426691623978243e+01 3.5624712256701706e+01 0.0000000000000000e+00 1 0 0 
2347 1 1.3374729189955843e+01 3.5751951834684519e+01 0.0000000000000000e+00 1 0 0 
1886 1 1.9505480856352264e+00 3.6424461046018948e+01 0.0000000000000000e+00 1 -1 0 
1224 1 2.9052050091555821e+00 3.6109209497119139e+01 0.0000000000000000e+00 0 0 0 
336 1 3.6544739488792617e+00 3.6730870866131774e+01 0.0000000000000000e+00 0 0 0 
647 1 4.6242999773024369e+00 3.6439200685679637e+01 0.0000000000000000e+00 0 0 0 
2210 1 1.0143154353600661e+01 3.7096298061114354e+01 0.0000000000000000e+00 0 0 0 
2479 1 1.0861838059040178e+01 3.6410214427030567e+01 0.0000000000000000e+00 0 1 0 
214 1 1.1852888665219201e+01 3.6459239696151506e+01 0.0000000000000000e+00 1 1 0 
270 1 1.2189867252385248e+01 3.7400221523293354e+01 0.0000000000000000e+00 0 -1 0 
1779 1 1.3184574893552401e+01 3.7496019707809829e+01 0.0000000000000000e+00 1 1 0 
608 1 1.3703236845740649e+01 3.6677229381155172e+01 0.0000000000000000e+00 0 1 0 
321 1 1.4687566579824022e+01 3.6757375962396701e+01 0.0000000000000000e+00 -1 0 0 
2438 1 6.1086431760433701e-01 3.7523541529093201e+01 0.0000000000000000e+00 1 1 0 
2117 1 1.6048174019153592e+00 3.7345701694118986e+01 0.0000000000000000e+00 2 0 0 
190 1 2.3914196807440318e+00 3.7917390993763917e+01 0.0000000000000000e+00 0 -1 0 
2151 1 3.3611387378203079e+00 3.7695135092071361e+01 0.0000000000000000e+00 1 0 0 
1275 1 5.1832002426557677e+00 3.7274999749622808e+01 0.0000000000000000e+00 1 1 0 
2316 1 4.9902259902730499e+00 3.8233105162245138e+01 0.0000000000000000e+00 0 0 0 
1368 1 8.3003525336888160e+00 3.8145285829788939e+01 0.0000000000000000e+00 0 0 0 
227 1 1.0031324204904545e+01 3.8073197545772743e+01 0.0000000000000000e+00 -1 0 0 
709 1 1.1731982652694095e+01 3.8283506289578177e+01 0.0000000000000000e+00 1 -1 0 
2005 1 1.5270252717541823e+01 3.7574512915643247e+01 0.0000000000000000e+00 0 1 0 
2456 1 1.5752484506585045e+01 7.7695525791920461e-01 0.0000000000000000e+00 1 2 0 
438 1 1.6509776491605357e-01 3.8384136043014230e+01 0.0000000000000000e+00 0 0 0 
1491 1 3.7144768867990630e+00 3.9382319224346446e+01 0.0000000000000000e+00 1 1 0 
870 1 4.0031099816545668e+00 3.8448480645130800e+01 0.0000000000000000e+00 1 1 0 
1404 1 5.7926278718043624e+00 3.8769328559615147e+01 0.0000000000000000e+00 0 0 0 
1741 1 6.7121203035973132e+00 3.9093115076632039e+01 0.0000000000000000e+00 0 0 0 
1414 1 7.3468824929770937e+00 3.8354048536620795e+01 0.0000000000000000e+00 1 1 0 
1283 1 2.9192038662466246e-01 2.1627194193495420e+01 0.0000000000000000e+00 0 -1 0 
1418 1 9.1693788236139380e+00 3.8572070136459956e+01 0.0000000000000000e+00 1 1 0 
344 1 1.0827062784216116e+01 3.8652345344661001e+01 0.0000000000000000e+00 0 1 0 
541 1 1.5700714065854855e+01 2.2539726535582659e+01 0.0000000000000000e+00 0 -1 0 
1450 1 4.3549409769651817e+00 4.0109105388100737e+01 0.0000000000000000e+00 0 0 0 
999 1 5.3134606406850819e+00 4.0315005609170981e+01 0.0000000000000000e+00 0 -1 0 
1935 1 6.9629092263036201e+00 4.0059302471482745e+01 0.0000000000000000e+00 1 0 0 
516 1 7.8875434448749777e+00 4.0343152978538576e+01 0.0000000000000000e+00 -1 0 0 
1774 1 9.9869793974149257e+00 4.0104719372627727e+01 0.0000000000000000e+00 1 0 0 
2436 1 1.5759547690957382e+01 4.0111411308844701e+01 0.0000000000000000e+00 2 0 0 
1883 1 6.2152202496619795e+00 4.0714456363811024e+01 0.0000000000000000e+00 1 1 0 
2424 1 6.4175317600184627e+00 4.1695750294630940e+01 0.0000000000000000e+00 1 0 0 
1547 1 8.1032251228371717e+00 4.1307790437343847e+01 0.0000000000000000e+00 -1 -1 0 
928 1 9.0596859445891145e+00 4.1455280544954547e+01 0.0000000000000000e+00 0 0 0 
2331 1 9.9471713253402640e+00 4.1071296205961829e+01 0.0000000000000000e+00 0 1 0 
1731 1 1.0780078652370189e+01 4.1622356747788537e+01 0.0000000000000000e+00 0 1 0 
2104 1 1.4264106573899891e+01 4.1368066187541757e+01 0.0000000000000000e+00 1 -1 0 
702 1 1.5091160310546064e+01 4.0847041919356663e+01 0.0000000000000000e+00 0 -1 0 
290 1 5.7988056915690969e+00 4.2440050336911582e+01 0.0000000000000000e+00 0 1 0 
2170 1 7.3727743026335721e+00 4.1966532556207333e+01 0.0000000000000000e+00 2 -1 0 
335 1 7.5907836093610399e+00 4.2953570245322759e+01 0.0000000000000000e+00 0 0 0 
121 1 1.1719855874199252e+01 4.1999726871713442e+01 0.0000000000000000e+00 0 0 0 
718 1 1.2702187375430015e+01 4.1990754654888512e+01 0.0000000000000000e+00 0 1 0 
1170 1 1.3665114657370021e+01 4.2123426264095983e+01 0.0000000000000000e+00 2 0 0 
1863 1 5.0814595936779243e+00 4.3111844413513417e+01 0.0000000000000000e+00 1 0 0 
1358 1 5.0365090214143429e+00 4.4083066727510385e+01 0.0000000000000000e+00 1 0 0 
2498 1 7.8316325938333691e+00 4.3898411429234081e+01 0.0000000000000000e+00 1 1 0 
2109 1 1.4232090570016938e+01 4.2950105023475317e+01 0.0000000000000000e+00 1 -1 0 
1621 1 1.3731655606900306e+01 4.3814460507204629e+01 0.0000000000000000e+00 0 0 0 
151 1 1.5210691099866636e+01 4.3041498894106141e+01 0.0000000000000000e+00 0 -1 0 
793 1 1.5623282069992483e+01 4.3918893532858341e+01 0.0000000000000000e+00 0 0 0 
2111 1 4.2315137361401529e+00 4.4652624367735896e+01 0.0000000000000000e+00 1 -1 0 
2240 1 5.8962132315968070e+00 4.4568787609541424e+01 0.0000000000000000e+00 0 0 0 
1703 1 6.6252068954365537e+00 4.5218274192087904e+01 0.0000000000000000e+00 -1 0 0 
667 1 7.5242453120001427e+00 4.4818760396699261e+01 0.0000000000000000e+00 0 0 0 
142 1 1.1737836102843429e+01 4.5144241840884455e+01 0.0000000000000000e+00 -1 0 0 
2468 1 1.4186855960168078e+01 4.4682007861736110e+01 0.0000000000000000e+00 1 0 0 
1100 1 1.5167942785242108e+01 4.4780808901708468e+01 0.0000000000000000e+00 1 0 0 
62 1 4.0190205726965251e+00 4.5595735374304255e+01 0.0000000000000000e+00 -1 0 0 
1381 1 6.5131176727110267e+00 4.6224442137026408e+01 0.0000000000000000e+00 0 1 0 
2154 1 1.0897665458789914e+01 4.5639997749731251e+01 0.0000000000000000e+00 1 1 0 
955 1 1.2675687518475854e+01 4.5440904068156790e+01 0.0000000000000000e+00 0 1 0 
762 1 1.3657157765825922e+01 4.5503529288317608e+01 0.0000000000000000e+00 1 0 0 
2000 1 1.5673338754691132e+01 4.5606306905643514e+01 0.0000000000000000e+00 1 0 0 
1004 1 4.1800788973773830e+00 4.6579639911087412e+01 0.0000000000000000e+00 0 0 0 
1734 1 4.3954541450053437e+00 4.7522811556368367e+01 0.0000000000000000e+00 0 0 0 
1829 1 6.7384517993729443e+00 4.7192699907427119e+01 0.0000000000000000e+00 1 1 0 
73 1 7.6729686010392406e+00 4.7478325996098178e+01 0.0000000000000000e+00 1 0 0 
1712 1 9.7217239687433281e+00 4.6752779615797188e+01 0.0000000000000000e+00 1 -1 0 
281 1 1.0678196891981660e+01 4.6583152625557695e+01 0.0000000000000000e+00 0 0 0 
2317 1 1.1316915909921940e+01 4.7354190912875325e+01 0.0000000000000000e+00 1 0 0 
2105 1 1.3929628607521776e+01 4.6450370734094342e+01 0.0000000000000000e+00 1 1 0 
395 1 1.3404613412398870e+01 4.7284731488276869e+01 0.0000000000000000e+00 0 1 0 
1157 1 4.6486098303626120e+00 4.8489690506187642e+01 0.0000000000000000e+00 0 -1 0 
1982 1 5.6179528342958678e+00 4.8754179691302689e+01 0.0000000000000000e+00 1 0 0 
38 1 6.1119413454670903e+00 4.7921024820652910e+01 0.0000000000000000e+00 0 -1 0 
501 1 8.4929161752471245e+00 4.8031705940752879e+01 0.0000000000000000e+00 0 0 0 
659 1 9.4023957096308663e+00 4.7668715787364761e+01 0.0000000000000000e+00 1 0 0 
807 1 1.1917774785002878e+01 4.8116412507347235e+01 0.0000000000000000e+00 1 0 0 
2225 1 1.2892653049237794e+01 4.8136055205587219e+01 0.0000000000000000e+00 2 0 0 
305 1 1.4998491701640843e+01 4.8262279711111098e+01 0.0000000000000000e+00 0 0 0 
352 1 4.2860002989180440e-01 4.9339017506339445e+01 0.0000000000000000e+00 -1 -1 0 
546 1 1.3960298255552914e+00 4.9113620541025085e+01 0.0000000000000000e+00 1 0 0 
696 1 2.2381662677696377e+00 4.9606326076710403e+01 0.0000000000000000e+00 0 0 0 
252 1 3.0703616402315781e+00 4.9012519491830759e+01 0.0000000000000000e+00 0 1 0 
398 1 4.0276604200717214e+00 4.9277204864388395e+01 0.0000000000000000e+00 0 -1 0 
1161 1 5.8884916961370743e+00 4.9689431039982480e+01 0.0000000000000000e+00 1 0 0 
437 1 8.3434819892761229e+00 4.8997674119227064e+01 0.0000000000000000e+00 -1 1 0 
2093 1 8.8725035497562033e+00 4.9870168164773453e+01 0.0000000000000000e+00 1 -1 0 
1395 1 1.0394555240698091e+01 4.8948624573419863e+01 0.0000000000000000e+00 0 1 0 
924 1 9.8660914310073373e+00 4.9759832680250859e+01 0.0000000000000000e+00 0 0 0 
1187 1 1.1387739952090437e+01 4.8983448036442269e+01 0.0000000000000000e+00 0 -1 0 
255 1 1.1897910514958381e+01 4.9823222056161278e+01 0.0000000000000000e+00 0 -1 0 
2183 1 1.2866594602703314e+01 4.9807609545510225e+01 0.0000000000000000e+00 1 0 0 
1897 1 1.3364129765516033e+01 4.8988045835011832e+01 0.0000000000000000e+00 1 -1 0 
562 1 1.4357490737359544e+01 4.9007271318432018e+01 0.0000000000000000e+00 -1 0 0 
2176 1 2.2415229615112051e+00 5.0584769088545627e+01 0.0000000000000000e+00 0 0 0 
331 1 4.2352340069194954e+00 5.0261399995520243e+01 0.0000000000000000e+00 0 -2 0 
548 1 5.1910650050049343e+00 5.0412712865495237e+01 0.0000000000000000e+00 0 0 0 
1914 1 6.8463376914605050e+00 4.9774128293476387e+01 0.0000000000000000e+00 1 -1 0 
2352 1 7.3876073114894867e+00 5.0591850675522309e+01 0.0000000000000000e+00 1 -1 0 
1892 1 8.3752541077184386e+00 5.0693822844038138e+01 0.0000000000000000e+00 0 1 0 
159 1 1.0359139773510583e+01 5.0636560725036816e+01 0.0000000000000000e+00 0 -1 0 
1033 1 1.1350807693380201e+01 5.0686681921358350e+01 0.0000000000000000e+00 1 -2 0 
848 1 1.3348606929510142e+01 5.0682137999457950e+01 0.0000000000000000e+00 1 0 0 
1094 1 1.4337038185405232e+01 5.0794153174989525e+01 0.0000000000000000e+00 0 -1 0 
1271 1 1.4779784969153081e+01 4.9928875828398020e+01 0.0000000000000000e+00 0 -1 0 
229 1 1.6068905758850585e+00 5.1344906584752508e+01 0.0000000000000000e+00 0 0 0 
88 1 1.6318436856133904e+00 5.2334594582582234e+01 0.0000000000000000e+00 0 0 0 
1048 1 3.4023507521992742e+00 5.2305697357185544e+01 0.0000000000000000e+00 -1 -1 0 
1007 1 5.1207114083633813e+00 5.2307048889050826e+01 0.0000000000000000e+00 1 -1 0 
2134 1 5.4509659962539203e+00 5.1389318562353601e+01 0.0000000000000000e+00 1 0 0 
1233 1 8.9256850527979914e+00 5.1512361661359080e+01 0.0000000000000000e+00 0 0 0 
2212 1 9.9147050116085271e+00 5.1543037780123719e+01 0.0000000000000000e+00 1 0 0 
1978 1 1.1818781015680095e+01 5.1569083621931490e+01 0.0000000000000000e+00 1 0 0 
796 1 1.4747298277743806e+01 5.1696816872039960e+01 0.0000000000000000e+00 0 0 0 
1028 1 7.6176628701552129e-01 5.2799352467540672e+01 0.0000000000000000e+00 1 -1 0 
419 1 2.5096552656630116e+00 5.2747636603374623e+01 0.0000000000000000e+00 0 1 0 
720 1 4.2641649152662824e+00 5.2820820040968158e+01 0.0000000000000000e+00 1 0 0 
1021 1 8.4797302945837121e+00 5.2353545856678608e+01 0.0000000000000000e+00 0 -1 0 
586 1 8.8872597443579426e+00 5.3244449681389540e+01 0.0000000000000000e+00 0 0 0 
1736 1 1.0356698573566707e+01 5.2451358887393923e+01 0.0000000000000000e+00 1 0 0 
131 1 9.8784989270290549e+00 5.3307453324163646e+01 0.0000000000000000e+00 1 0 0 
897 1 1.1331130578572916e+01 5.2430101688755670e+01 0.0000000000000000e+00 0 0 0 
2370 1 1.1825315715505429e+01 5.3250748233265156e+01 0.0000000000000000e+00 2 0 0 
1557 1 1.4963895356599151e+01 5.2653452681737129e+01 0.0000000000000000e+00 0 0 0 
1441 1 8.2703602049245684e-01 5.3765683656328761e+01 0.0000000000000000e+00 1 0 0 
2260 1 1.6630350117282544e+00 5.4234121955869462e+01 0.0000000000000000e+00 1 -1 0 
901 1 2.5222068771346868e+00 5.3734153893360244e+01 0.0000000000000000e+00 -1 0 0 
1543 1 3.3913345496993199e+00 5.4221507067964630e+01 0.0000000000000000e+00 1 0 0 
33 1 4.2848370867831695e+00 5.3816608889916708e+01 0.0000000000000000e+00 1 -1 0 
2491 1 5.0465892750937424e+00 5.4435104226730772e+01 0.0000000000000000e+00 1 0 0 
1093 1 8.2724181754886725e+00 5.4015717835076934e+01 0.0000000000000000e+00 0 0 0 
1109 1 1.0369437976300672e+01 5.4163227809726401e+01 0.0000000000000000e+00 1 0 0 
2191 1 1.1382228794893576e+01 5.4136353322905073e+01 0.0000000000000000e+00 1 0 0 
209 1 1.4625671239150368e+01 5.3552712575623367e+01 0.0000000000000000e+00 -1 0 0 
2029 1 5.7918119813279585e+00 5.5092735771184621e+01 0.0000000000000000e+00 1 0 0 
719 1 6.4537880253913142e+00 5.5798436445154081e+01 0.0000000000000000e+00 1 -1 0 
1904 1 7.3826619536219109e+00 5.5439416419543264e+01 0.0000000000000000e+00 0 -1 0 
1188 1 8.2496490473008901e+00 5.5015741294570375e+01 0.0000000000000000e+00 1 0 0 
1856 1 9.0547820932211796e+00 5.5540766860108043e+01 0.0000000000000000e+00 -1 0 0 
1724 1 9.9021570589232866e+00 5.5023714115134432e+01 0.0000000000000000e+00 1 0 0 
244 1 1.2002606705030397e+01 5.4923252074745811e+01 0.0000000000000000e+00 -1 0 0 
1949 1 1.2783565060052988e+01 5.5521357548293231e+01 0.0000000000000000e+00 1 0 0 
814 1 1.3753057148794166e+01 5.5559834527452765e+01 0.0000000000000000e+00 0 0 0 
961 1 1.5040049058681362e+01 5.4438888157075894e+01 0.0000000000000000e+00 0 0 0 